
         
 *******************************************************************************
 *                                                                             *
 *                               CRYSTAL14                                     *
 *                      public : 1.0.2 - Feb 23rd, 2013                        *
 *                       HTTP://WWW.CRYSTAL.UNITO.IT                           *
 *                                                                             *
 *                              MAIN AUTHORS                                   *
 *                                                                             *
 *  R. DOVESI(1,11), V.R. SAUNDERS(2), C. ROETTI(1,11), R. ORLANDO(1,11),      *
 *  C.M. ZICOVICH-WILSON(1,3), F. PASCALE(4), B. CIVALLERI(1,11),              *
 *  K. DOLL(5), N.M. HARRISON(2,6), I. J. BUSH(7), Ph. D'ARCO(8),              *
 *  M. LLUNELL(9), M. CAUSA'(10), Y. NOEL(8)                                   *
 *                                                                             *
 *        CONTRIBUTIONS TO THE CURRENT RELEASE HAVE BEEN GIVEN BY              *
 *                                                                             *
 *  L. MASCHIO(1,11), S. CASASSA(1,11), A. ERBA(1,11), M. FERRABONE(1,11),     *
 *  M. DE LA PIERRE(1,11), M. FERRERO(1,11), V. LACIVITA(1,11),                *
 *  J. BAIMA(1,11), E. ALBANESE(1,11), M.F. PEINTINGER(12), R. BAST(13),       *
 *  M. RERAT(14), B. KIRTMAN(15), R. DEMICHELIS(1,16)                          *
 *                                                                             *
 * (1) THEORETICAL CHEMISTRY GROUP - UNIVERSITA' DI TORINO - TORINO (ITALY)    *
 *     http://www.crystal.unito.it                                             *
 * (2) COMPUTATIONAL SCIENCE & ENGINEERING DEPARTMENT - STFC DARESBURY (UK)    *
 *     http://www.stfc.ac.uk/CSE/randd/cmg/CRYSTAL/25806.aspx                  *
 * (3) UNIVERSIDAD AUTONOMA DEL ESTADO DE MORELOS - CUERNAVACA (MEXICO)        *
 * (4) UNIVERSITE' DE LORRAINE - NANCY (FRANCE)                                *
 * (5) UNIVERSITAET ULM - ULM (GERMANY); (6) IMPERIAL COLLEGE - LONDON (UK)    *
 * (7) NAG - OXFORD (UK); (8) UPMC - SORBONNE UNIVERSITES - PARIS (FRANCE)     *
 * (9) UNIVERSIDAD DE BARCELONA - BARCELONA (SPAIN)                            *
 *(10) UNIVERSITA' DI NAPOLI "FEDERICO II" - NAPOLI (ITALY)                    *
 *(11) NIS - NANOSTRUCTURED INTERFACES AND SURFACES - TORINO (ITALY)           *
 *(12) MPI FUER CHEMISCHE ENERGIEKONVERSION - MUELHEIM AN DER RUHR (GERMANY)   *
 *(13) UNIVERSITY OF STOCKHOLM - STOCKHOLM (SWEDEN)                            *
 *(14) UNIVERSITE' DE PAU ET DES PAYS DE L'ADOUR - PAU (FRANCE)                *
 *(15) UNIVERSITY OF CALIFORNIA SANTA BARBARA - SANTA BARBARA (USA)            *
 *(16) CURTIN UNIVERSITY - PERTH (AUSTRALIA)                                   *
 *                                                                             *
 ********************************************************************************
 EEEEEEEEEE STARTING  DATE 21 11 2017 TIME 12:04:25.5
 * OXYGEN IN SILICON, BIG BASIS SET, 64 +1 ATOMS *                               

 GEOMETRY INPUT FROM EXTERNAL FILE (FORTRAN UNIT 34)
 3D - CRYSTAL 

 *******************************************************************************
 LATTICE PARAMETERS  (ANGSTROMS AND DEGREES) - PRIMITIVE CELL
       A          B          C        ALPHA      BETA     GAMMA        VOLUME
   11.02138   11.02171   11.02064    89.57352  89.57362  89.57266   1338.615957
 INFORMATION **** CHKGRP **** SPGR WITH NO INVERSION

 NUMBER OF IRREDUCIBLE ATOMS IN THE CELL:   65

 CARTESIAN COORDINATES (ANGSTROM) - IRREDUCIBLE ATOMS AND SYMMETRY RELATED

 AT.IRR.  AT  AT.N.          X                   Y                   Z
     1     1    14    1.618004989898E+00  1.620871205235E+00  1.637166924514E+00
     2     2    14    4.187770420470E+00  4.188107015784E+00  1.422778100396E+00
     3     3    14   -4.176428077421E+00 -4.176677854783E+00  1.344542913665E+00
     4     4    14   -1.497049702350E+00 -1.497351534227E+00  1.310233264524E+00
     5     5    14    4.222016458366E+00  1.434874006343E+00  4.213788711295E+00
     6     6    14   -4.082916806292E+00  4.139740439756E+00  4.132002670550E+00
     7     7    14   -1.368554854807E+00 -4.116179292500E+00  4.094274650435E+00
     8     8    14    1.389433883866E+00 -1.331793040379E+00  4.106619137525E+00
     9     9    14   -4.150269775933E+00  1.347860210406E+00 -4.160177050292E+00
    10    10    14   -1.372458836911E+00  4.102674626766E+00 -4.131909768996E+00
    11    11    14    1.347090075096E+00 -4.147384792736E+00 -4.157386698987E+00
    12    12    14    4.102061669519E+00 -1.372066857275E+00 -4.131985664748E+00
    13    13    14   -1.453618228092E+00  1.338880824269E+00 -1.466871562361E+00
    14    14    14    1.384279456079E+00  4.125545527302E+00 -1.351746502706E+00
    15    15    14    4.100569708838E+00 -4.120228260430E+00 -1.373204321392E+00
    16    16    14   -4.172004227478E+00 -1.415422348217E+00 -1.421676531639E+00
    17    17    14    1.435330430806E+00  4.226012925217E+00  4.217835058166E+00
    18    18    14    4.139978892044E+00 -4.082450859254E+00  4.132641407088E+00
    19    19    14   -4.115793642827E+00 -1.367824507595E+00  4.094426106566E+00
    20    20    14   -1.330945468304E+00  1.390484398996E+00  4.106696330116E+00
    21    21    14    4.143879691631E+00  4.144033815071E+00 -4.085334237922E+00
    22    22    14   -4.165534187902E+00 -4.165997746791E+00 -4.173781902401E+00
    23    23    14   -1.408278574399E+00 -1.408251779271E+00 -4.175268138770E+00
    24    24    14    1.368817795219E+00  1.369079865992E+00 -4.131458248576E+00
    25    25    14   -4.119077183269E+00  4.100602352702E+00 -1.372326105484E+00
    26    26    14   -1.414835348310E+00 -4.171510979743E+00 -1.420909954680E+00
    27    27    14    1.340931841957E+00 -1.449629494144E+00 -1.461755884788E+00
    28    28    14    4.126230113882E+00  1.385137767091E+00 -1.351954555172E+00
    29    29    14   -1.333830428907E+00  4.126120333502E+00  1.386484045528E+00
    30    30    14    1.365545755607E+00 -4.120747842611E+00  1.358957734911E+00
    31    31    14    4.127123062287E+00 -1.335375377270E+00  1.385932268938E+00
    32    32    14   -4.120404167267E+00  1.365338437818E+00  1.358575070806E+00
    33    33    14   -2.478066368800E-01 -2.444638677710E-01 -2.234016290120E-01
    34    34    14    2.833529589716E+00  2.833237706885E+00  3.525214811700E-02
    35    35    14    5.533308487570E+00  5.533393982676E+00  3.864130582800E-02
    36    36    14   -2.844672060216E+00 -2.844425207222E+00 -5.309556324100E-02
    37    37    14    2.875483269496E+00  6.623879619300E-02  2.859834292102E+00
    38    38    14    5.560584117138E+00  2.801185372602E+00  2.794919059048E+00
    39    39    14   -2.711073577348E+00  5.512002360445E+00  2.755604569345E+00
    40    40    14   -3.127196413000E-03 -2.727779250999E+00  2.713905170596E+00
    41    41    14    5.558790312602E+00  4.143084024200E-02  5.549211022908E+00
    42    42    14   -2.708862929373E+00  2.756745352525E+00  5.498678553340E+00
    43    43    14    4.096008944800E-02  5.561999142627E+00  5.551940346377E+00
    44    44    14    2.756285340466E+00 -2.708517233373E+00  5.499037214097E+00
    45    45    14   -2.809567512613E+00 -4.016824599600E-02 -2.817397874588E+00
    46    46    14    1.893434643000E-03  2.733182692151E+00 -2.744781086337E+00
    47    47    14    2.760570638419E+00  5.516413555017E+00 -2.717010865113E+00
    48    48    14    5.471121809235E+00 -2.751096466859E+00 -2.758429186683E+00
    49    49    14    6.878224035500E-02  2.879661765675E+00  2.864831106590E+00
    50    50    14    2.801552231023E+00  5.561430254815E+00  2.795757364545E+00
    51    51    14    5.512736640102E+00 -2.711241784477E+00  2.756263959424E+00
    52    52    14   -2.727010163413E+00 -2.629727756000E-03  2.713970985027E+00
    53    53    14    2.807801509230E+00  2.808004788238E+00  5.557165608290E+00
    54    54    14    5.558041121879E+00  5.557995440097E+00  5.549189089007E+00
    55    55    14   -2.747163737646E+00 -2.747213057279E+00  5.468106577861E+00
    56    56    14    2.691309550300E-02  2.707785561800E-02  5.502784827575E+00
    57    57    14    5.516745362682E+00  2.761672937746E+00 -2.717034494538E+00
    58    58    14   -2.750571577592E+00  5.471679005691E+00 -2.757716278901E+00
    59    59    14   -3.964334281700E-02 -2.805694876845E+00 -2.813565591582E+00
    60    60    14    2.733718133906E+00  2.985940220000E-03 -2.744350705724E+00
    61    61    14   -2.726168989587E+00  2.730289700168E+00 -5.724431410000E-04
    62    62    14    2.373325905400E-02  5.515349273328E+00  1.655248624500E-02
    63    63    14    2.731560560832E+00 -2.727502892026E+00 -2.746679550000E-04
    64    64    14    5.515302438457E+00  2.359907584400E-02  1.600784584000E-02
    65    65     8    5.787190950610E-01  6.094757592800E-01  8.921190141960E-01

 SYMMETRY CHANGED DURING OLD RUN :  INFORMATION ON SPACE GROUP LOST 
 NUMBER OF SYMMETRY OPERATORS         :    1
 *******************************************************************************
 LATTICE PARAMETERS (ANGSTROMS AND DEGREES) - BOHR = 0.5291772083 ANGSTROM
 PRIMITIVE CELL - CENTRING CODE 1/0 VOLUME=  1338.615957 - DENSITY  2.241 g/cm^3
         A              B              C           ALPHA      BETA       GAMMA 
    11.02138304    11.02170669    11.02064496    89.573521  89.573618  89.572663
 *******************************************************************************
 ATOMS IN THE ASYMMETRIC UNIT   65 - ATOMS IN THE UNIT CELL:   65
     ATOM                 X/A                 Y/B                 Z/C    
 *******************************************************************************
      1 T  14 SI    1.457181012401E-01  1.459749740517E-01  1.474704980245E-01
      2 T  14 SI    3.780973394377E-01  3.781172979077E-01  1.262872496232E-01
      3 T  14 SI   -3.779990595518E-01 -3.780111967498E-01  1.248188011695E-01
      4 T  14 SI   -1.357719802689E-01 -1.357956818643E-01  1.199017697092E-01
      5 T  14 SI    3.811963569756E-01  1.273594302944E-01  3.804659741223E-01
      6 T  14 SI   -3.732469298023E-01  3.756038020463E-01  3.749287538302E-01
      7 T  14 SI   -1.241640590473E-01 -3.743878238228E-01  3.733711239286E-01
      8 T  14 SI    1.251448594184E-01 -1.226818990557E-01  3.726257836872E-01
      9 T  14 SI   -3.756408312382E-01  1.250865424742E-01 -3.765620725297E-01
     10 T  14 SI   -1.245286976361E-01  3.740972985479E-01 -3.758592534503E-01
     11 T  14 SI    1.250187432190E-01 -3.753684482470E-01 -3.763089068595E-01
     12 T  14 SI    3.740525748169E-01 -1.244886854236E-01 -3.758653947368E-01
     13 T  14 SI   -1.318554070532E-01  1.224622400139E-01 -1.330691913095E-01
     14 T  14 SI    1.246689693539E-01  3.743135794314E-01 -1.245156208696E-01
     15 T  14 SI    3.739179422181E-01 -3.747635657813E-01 -1.246009160742E-01
     16 T  14 SI   -3.776003128876E-01 -1.265467330662E-01 -1.271260245103E-01
     17 T  14 SI    1.274015614296E-01  3.815462998210E-01  3.808313091026E-01
     18 T  14 SI    3.756366492862E-01 -3.731936782549E-01  3.749874855675E-01
     19 T  14 SI   -3.743638471156E-01 -1.240948886130E-01  3.733841548690E-01
     20 T  14 SI   -1.226089967735E-01  1.252359274891E-01  3.726318157676E-01
     21 T  14 SI    3.759748709470E-01  3.759784356499E-01 -3.735032022749E-01
     22 T  14 SI   -3.751655717237E-01 -3.751970934007E-01 -3.759352261983E-01
     23 T  14 SI   -1.259095751919E-01 -1.259034629469E-01 -3.779263860972E-01
     24 T  14 SI    1.251249358281E-01  1.251454004560E-01 -3.758205313177E-01
     25 T  14 SI   -3.746709018775E-01  3.739088530672E-01 -1.245226309457E-01
     26 T  14 SI   -1.264972080289E-01 -3.775450380998E-01 -1.270564889549E-01
     27 T  14 SI    1.226489900467E-01 -1.314918418046E-01 -1.326066723932E-01
     28 T  14 SI    3.743862754615E-01  1.247435061519E-01 -1.245346832737E-01
     29 T  14 SI   -1.228802154294E-01  3.743628757519E-01  1.248728808285E-01
     30 T  14 SI    1.248364358109E-01 -3.748058438224E-01  1.242429757996E-01
     31 T  14 SI    3.744657353668E-01 -1.230165448099E-01  1.248236633928E-01
     32 T  14 SI   -3.747855661389E-01  1.248134957034E-01  1.242075332897E-01
     33 T  14 SI   -2.232798475708E-02 -2.202292182211E-02 -2.010633627146E-02
     34 T  14 SI    2.561391133452E-01  2.561053136490E-01  1.291491336371E-03
     35 T  14 SI   -4.998023753437E-01 -4.998086835951E-01 -2.185327373723E-04
     36 T  14 SI   -2.571403990897E-01 -2.571106715334E-01 -2.903131952668E-03
     37 T  14 SI    2.599308818677E-01  4.084573241075E-03  2.585186222150E-01
     38 T  14 SI   -4.973312686974E-01  2.513550537845E-01  2.508037121641E-01
     39 T  14 SI   -2.487714781242E-01 -4.998860819557E-01  2.491072664979E-01
     40 T  14 SI   -2.748346464066E-04 -2.484099457211E-01  2.471859897467E-01
     41 T  14 SI   -4.974878838475E-01  2.989023015192E-05 -4.983351824129E-01
     42 T  14 SI   -2.485624991063E-01  2.491992429288E-01  4.989475623132E-01
     43 T  14 SI   -1.523948785357E-05 -4.972124017278E-01 -4.980891150736E-01
     44 T  14 SI    2.491650338865E-01 -2.485236768735E-01  4.989808167276E-01
     45 T  14 SI   -2.539729089660E-01 -1.755486707209E-03 -2.546987934828E-01
     46 T  14 SI    1.714121445544E-04  2.489109794996E-01 -2.499891523963E-01
     47 T  14 SI    2.495380208229E-01 -4.994933280822E-01 -2.493345651905E-01
     48 T  14 SI    4.982802518407E-01 -2.505340666460E-01 -2.512218780647E-01
     49 T  14 SI    4.312177402329E-03  2.602997750330E-01  2.589694387006E-01
     50 T  14 SI    2.513946473158E-01 -4.972694395932E-01  2.508790354540E-01
     51 T  14 SI   -4.998045713723E-01 -2.487794055789E-01  2.491679190697E-01
     52 T  14 SI   -2.483475592990E-01 -2.303414898570E-04  2.471912015203E-01
     53 T  14 SI    2.519633190875E-01  2.519745669889E-01 -4.976189472864E-01
     54 T  14 SI   -4.994125072042E-01 -4.994309370497E-01  4.998059200346E-01
     55 T  14 SI   -2.501751287876E-01 -2.501727346275E-01  4.980391886247E-01
     56 T  14 SI    5.894825867212E-04  6.043066886525E-04  4.993184550543E-01
     57 T  14 SI   -4.994492693981E-01  2.496312765587E-01 -2.493368542123E-01
     58 T  14 SI   -2.504948831472E-01  4.983155606141E-01 -2.511585594494E-01
     59 T  14 SI   -1.710284596579E-03 -2.536154558511E-01 -2.543521832053E-01
     60 T  14 SI    2.489662740260E-01  2.705828128623E-04 -2.499503116402E-01
     61 T  14 SI   -2.482816664369E-01  2.486469750007E-01 -5.366646994261E-05
     62 T  14 SI    2.916844253439E-04 -4.995848881235E-01 -3.627226114198E-04
     63 T  14 SI    2.487702244360E-01 -2.483956474498E-01 -2.595513768940E-05
     64 T  14 SI   -4.995742252310E-01  2.802836868521E-04 -4.114103364691E-04
     65 T   8 O     5.200694849532E-02  5.480647701257E-02  8.055320159666E-02

 T = ATOM BELONGING TO THE ASYMMETRIC UNIT
 *******************************************************************************
 * GEOMETRY EDITING - INPUT COORDINATES ARE GIVEN IN ANGSTROM         
 *******************************************************************************

 FRQFRQFRQFRQFRQFRQFRQFRQFRQFRQFRQFRQFRQFRQFRQFRQFRQFRQFRQFRQFRQFRQFRQFRQFRQFRQ

                       FREQUENCY CALCULATION

 INFORMATION **** INPFREQ **** FREQUENCY CALCULATION RESTART(DATA FROM FREQINFO.DAT)
 INFORMATION **** INPFREQ **** NEW DEFAULT - IMPOSING ECKART CONDITIONS TO THE HESSIAN

 GCALCO - MAX INDICES DIRECT LATTICE VECTOR    14    14    14
 NO.OF VECTORS CREATED 6999 STARS 3500 RMAX   246.92303 BOHR

 GEOMETRY FOR WAVE FUNCTION - DIMENSIONALITY OF THE SYSTEM    3
 (NON PERIODIC DIRECTION: LATTICE PARAMETER FORMALLY SET TO 500)
 *******************************************************************************
 LATTICE PARAMETERS (ANGSTROMS AND DEGREES) - BOHR = 0.5291772083 ANGSTROM
 PRIMITIVE CELL - CENTRING CODE 1/0 VOLUME=  1338.615957 - DENSITY  2.241 g/cm^3
         A              B              C           ALPHA      BETA       GAMMA 
    11.02138304    11.02170669    11.02064496    89.573521  89.573618  89.572663
 *******************************************************************************
 ATOMS IN THE ASYMMETRIC UNIT   65 - ATOMS IN THE UNIT CELL:   65
     ATOM                 X/A                 Y/B                 Z/C    
 *******************************************************************************
      1 T  14 SI    1.457181012401E-01  1.459749740517E-01  1.474704980245E-01
      2 T  14 SI    3.780973394377E-01  3.781172979077E-01  1.262872496232E-01
      3 T  14 SI   -3.779990595518E-01 -3.780111967498E-01  1.248188011695E-01
      4 T  14 SI   -1.357719802689E-01 -1.357956818643E-01  1.199017697092E-01
      5 T  14 SI    3.811963569756E-01  1.273594302944E-01  3.804659741223E-01
      6 T  14 SI   -3.732469298023E-01  3.756038020463E-01  3.749287538302E-01
      7 T  14 SI   -1.241640590473E-01 -3.743878238228E-01  3.733711239286E-01
      8 T  14 SI    1.251448594184E-01 -1.226818990557E-01  3.726257836872E-01
      9 T  14 SI   -3.756408312382E-01  1.250865424742E-01 -3.765620725297E-01
     10 T  14 SI   -1.245286976361E-01  3.740972985479E-01 -3.758592534503E-01
     11 T  14 SI    1.250187432190E-01 -3.753684482470E-01 -3.763089068595E-01
     12 T  14 SI    3.740525748169E-01 -1.244886854236E-01 -3.758653947368E-01
     13 T  14 SI   -1.318554070532E-01  1.224622400139E-01 -1.330691913095E-01
     14 T  14 SI    1.246689693539E-01  3.743135794314E-01 -1.245156208696E-01
     15 T  14 SI    3.739179422181E-01 -3.747635657813E-01 -1.246009160742E-01
     16 T  14 SI   -3.776003128876E-01 -1.265467330662E-01 -1.271260245103E-01
     17 T  14 SI    1.274015614296E-01  3.815462998210E-01  3.808313091026E-01
     18 T  14 SI    3.756366492862E-01 -3.731936782549E-01  3.749874855675E-01
     19 T  14 SI   -3.743638471156E-01 -1.240948886130E-01  3.733841548690E-01
     20 T  14 SI   -1.226089967735E-01  1.252359274891E-01  3.726318157676E-01
     21 T  14 SI    3.759748709470E-01  3.759784356499E-01 -3.735032022749E-01
     22 T  14 SI   -3.751655717237E-01 -3.751970934007E-01 -3.759352261983E-01
     23 T  14 SI   -1.259095751919E-01 -1.259034629469E-01 -3.779263860972E-01
     24 T  14 SI    1.251249358281E-01  1.251454004560E-01 -3.758205313177E-01
     25 T  14 SI   -3.746709018775E-01  3.739088530672E-01 -1.245226309457E-01
     26 T  14 SI   -1.264972080289E-01 -3.775450380998E-01 -1.270564889549E-01
     27 T  14 SI    1.226489900467E-01 -1.314918418046E-01 -1.326066723932E-01
     28 T  14 SI    3.743862754615E-01  1.247435061519E-01 -1.245346832737E-01
     29 T  14 SI   -1.228802154294E-01  3.743628757519E-01  1.248728808285E-01
     30 T  14 SI    1.248364358109E-01 -3.748058438224E-01  1.242429757996E-01
     31 T  14 SI    3.744657353668E-01 -1.230165448099E-01  1.248236633928E-01
     32 T  14 SI   -3.747855661389E-01  1.248134957034E-01  1.242075332897E-01
     33 T  14 SI   -2.232798475708E-02 -2.202292182211E-02 -2.010633627146E-02
     34 T  14 SI    2.561391133452E-01  2.561053136490E-01  1.291491336371E-03
     35 T  14 SI   -4.998023753437E-01 -4.998086835951E-01 -2.185327373723E-04
     36 T  14 SI   -2.571403990897E-01 -2.571106715334E-01 -2.903131952668E-03
     37 T  14 SI    2.599308818677E-01  4.084573241075E-03  2.585186222150E-01
     38 T  14 SI   -4.973312686974E-01  2.513550537845E-01  2.508037121641E-01
     39 T  14 SI   -2.487714781242E-01 -4.998860819557E-01  2.491072664979E-01
     40 T  14 SI   -2.748346464066E-04 -2.484099457211E-01  2.471859897467E-01
     41 T  14 SI   -4.974878838475E-01  2.989023015192E-05 -4.983351824129E-01
     42 T  14 SI   -2.485624991063E-01  2.491992429288E-01  4.989475623132E-01
     43 T  14 SI   -1.523948785357E-05 -4.972124017278E-01 -4.980891150736E-01
     44 T  14 SI    2.491650338865E-01 -2.485236768735E-01  4.989808167276E-01
     45 T  14 SI   -2.539729089660E-01 -1.755486707209E-03 -2.546987934828E-01
     46 T  14 SI    1.714121445544E-04  2.489109794996E-01 -2.499891523963E-01
     47 T  14 SI    2.495380208229E-01 -4.994933280822E-01 -2.493345651905E-01
     48 T  14 SI    4.982802518407E-01 -2.505340666460E-01 -2.512218780647E-01
     49 T  14 SI    4.312177402329E-03  2.602997750330E-01  2.589694387006E-01
     50 T  14 SI    2.513946473158E-01 -4.972694395932E-01  2.508790354540E-01
     51 T  14 SI   -4.998045713723E-01 -2.487794055789E-01  2.491679190697E-01
     52 T  14 SI   -2.483475592990E-01 -2.303414898570E-04  2.471912015203E-01
     53 T  14 SI    2.519633190875E-01  2.519745669889E-01 -4.976189472864E-01
     54 T  14 SI   -4.994125072042E-01 -4.994309370497E-01  4.998059200346E-01
     55 T  14 SI   -2.501751287876E-01 -2.501727346275E-01  4.980391886247E-01
     56 T  14 SI    5.894825867212E-04  6.043066886525E-04  4.993184550543E-01
     57 T  14 SI   -4.994492693981E-01  2.496312765587E-01 -2.493368542123E-01
     58 T  14 SI   -2.504948831472E-01  4.983155606141E-01 -2.511585594494E-01
     59 T  14 SI   -1.710284596579E-03 -2.536154558511E-01 -2.543521832053E-01
     60 T  14 SI    2.489662740260E-01  2.705828128623E-04 -2.499503116402E-01
     61 T  14 SI   -2.482816664369E-01  2.486469750007E-01 -5.366646994261E-05
     62 T  14 SI    2.916844253439E-04 -4.995848881235E-01 -3.627226114198E-04
     63 T  14 SI    2.487702244360E-01 -2.483956474498E-01 -2.595513768940E-05
     64 T  14 SI   -4.995742252310E-01  2.802836868521E-04 -4.114103364691E-04
     65 T   8 O     5.200694849532E-02  5.480647701257E-02  8.055320159666E-02

 T = ATOM BELONGING TO THE ASYMMETRIC UNIT

 ****    1 SYMMOPS - TRANSLATORS IN FRACTIONAL UNITS
 **** MATRICES AND TRANSLATORS IN THE CRYSTALLOGRAPHIC REFERENCE FRAME
   V INV                    ROTATION MATRICES                   TRANSLATORS
   1   1  1.00  0.00  0.00  0.00  1.00  0.00  0.00  0.00  1.00  0.00  0.00  0.00

 DIRECT LATTICE VECTORS CARTESIAN COMPONENTS (ANGSTROM)
          X                    Y                    Z
   0.110212303546E+02   0.410185047085E-01   0.410256396267E-01
   0.410326355348E-01   0.110215538907E+02   0.410417300313E-01
   0.408386183651E-01   0.408422260019E-01   0.110204936072E+02


 CARTESIAN COORDINATES - PRIMITIVE CELL
 *******************************************************************************
 *      ATOM          X(ANGSTROM)         Y(ANGSTROM)         Z(ANGSTROM)
 *******************************************************************************
    1    14 SI    1.618004989898E+00  1.620871205235E+00  1.637166924514E+00
    2    14 SI    4.187770420470E+00  4.188107015784E+00  1.422778100396E+00
    3    14 SI   -4.176428077421E+00 -4.176677854783E+00  1.344542913665E+00
    4    14 SI   -1.497049702350E+00 -1.497351534227E+00  1.310233264524E+00
    5    14 SI    4.222016458366E+00  1.434874006343E+00  4.213788711295E+00
    6    14 SI   -4.082916806292E+00  4.139740439756E+00  4.132002670550E+00
    7    14 SI   -1.368554854807E+00 -4.116179292500E+00  4.094274650435E+00
    8    14 SI    1.389433883866E+00 -1.331793040379E+00  4.106619137525E+00
    9    14 SI   -4.150269775933E+00  1.347860210406E+00 -4.160177050292E+00
   10    14 SI   -1.372458836911E+00  4.102674626766E+00 -4.131909768996E+00
   11    14 SI    1.347090075096E+00 -4.147384792736E+00 -4.157386698987E+00
   12    14 SI    4.102061669519E+00 -1.372066857275E+00 -4.131985664748E+00
   13    14 SI   -1.453618228092E+00  1.338880824269E+00 -1.466871562361E+00
   14    14 SI    1.384279456079E+00  4.125545527302E+00 -1.351746502706E+00
   15    14 SI    4.100569708838E+00 -4.120228260430E+00 -1.373204321392E+00
   16    14 SI   -4.172004227478E+00 -1.415422348217E+00 -1.421676531639E+00
   17    14 SI    1.435330430806E+00  4.226012925217E+00  4.217835058166E+00
   18    14 SI    4.139978892044E+00 -4.082450859254E+00  4.132641407088E+00
   19    14 SI   -4.115793642827E+00 -1.367824507595E+00  4.094426106566E+00
   20    14 SI   -1.330945468304E+00  1.390484398996E+00  4.106696330116E+00
   21    14 SI    4.143879691631E+00  4.144033815071E+00 -4.085334237922E+00
   22    14 SI   -4.165534187902E+00 -4.165997746791E+00 -4.173781902401E+00
   23    14 SI   -1.408278574399E+00 -1.408251779271E+00 -4.175268138770E+00
   24    14 SI    1.368817795219E+00  1.369079865992E+00 -4.131458248576E+00
   25    14 SI   -4.119077183269E+00  4.100602352702E+00 -1.372326105484E+00
   26    14 SI   -1.414835348310E+00 -4.171510979743E+00 -1.420909954680E+00
   27    14 SI    1.340931841957E+00 -1.449629494144E+00 -1.461755884788E+00
   28    14 SI    4.126230113882E+00  1.385137767091E+00 -1.351954555172E+00
   29    14 SI   -1.333830428907E+00  4.126120333502E+00  1.386484045528E+00
   30    14 SI    1.365545755607E+00 -4.120747842611E+00  1.358957734911E+00
   31    14 SI    4.127123062287E+00 -1.335375377270E+00  1.385932268938E+00
   32    14 SI   -4.120404167267E+00  1.365338437818E+00  1.358575070806E+00
   33    14 SI   -2.478066368800E-01 -2.444638677710E-01 -2.234016290120E-01
   34    14 SI    2.833529589716E+00  2.833237706885E+00  3.525214811700E-02
   35    14 SI    5.533308487570E+00  5.533393982676E+00  3.864130582800E-02
   36    14 SI   -2.844672060216E+00 -2.844425207222E+00 -5.309556324100E-02
   37    14 SI    2.875483269496E+00  6.623879619300E-02  2.859834292102E+00
   38    14 SI    5.560584117138E+00  2.801185372602E+00  2.794919059048E+00
   39    14 SI   -2.711073577348E+00  5.512002360445E+00  2.755604569345E+00
   40    14 SI   -3.127196413000E-03 -2.727779250999E+00  2.713905170596E+00
   41    14 SI    5.558790312602E+00  4.143084024200E-02  5.549211022908E+00
   42    14 SI   -2.708862929373E+00  2.756745352525E+00  5.498678553340E+00
   43    14 SI    4.096008944800E-02  5.561999142627E+00  5.551940346377E+00
   44    14 SI    2.756285340466E+00 -2.708517233373E+00  5.499037214097E+00
   45    14 SI   -2.809567512613E+00 -4.016824599600E-02 -2.817397874588E+00
   46    14 SI    1.893434643000E-03  2.733182692151E+00 -2.744781086337E+00
   47    14 SI    2.760570638419E+00  5.516413555017E+00 -2.717010865113E+00
   48    14 SI    5.471121809235E+00 -2.751096466859E+00 -2.758429186683E+00
   49    14 SI    6.878224035500E-02  2.879661765675E+00  2.864831106590E+00
   50    14 SI    2.801552231023E+00  5.561430254815E+00  2.795757364545E+00
   51    14 SI    5.512736640102E+00 -2.711241784477E+00  2.756263959424E+00
   52    14 SI   -2.727010163413E+00 -2.629727756000E-03  2.713970985027E+00
   53    14 SI    2.807801509230E+00  2.808004788238E+00  5.557165608290E+00
   54    14 SI    5.558041121879E+00  5.557995440097E+00  5.549189089007E+00
   55    14 SI   -2.747163737646E+00 -2.747213057279E+00  5.468106577861E+00
   56    14 SI    2.691309550300E-02  2.707785561800E-02  5.502784827575E+00
   57    14 SI    5.516745362682E+00  2.761672937746E+00 -2.717034494538E+00
   58    14 SI   -2.750571577592E+00  5.471679005691E+00 -2.757716278901E+00
   59    14 SI   -3.964334281700E-02 -2.805694876845E+00 -2.813565591582E+00
   60    14 SI    2.733718133906E+00  2.985940220000E-03 -2.744350705724E+00
   61    14 SI   -2.726168989587E+00  2.730289700168E+00 -5.724431410000E-04
   62    14 SI    2.373325905400E-02  5.515349273328E+00  1.655248624500E-02
   63    14 SI    2.731560560832E+00 -2.727502892026E+00 -2.746679550000E-04
   64    14 SI    5.515302438457E+00  2.359907584400E-02  1.600784584000E-02
   65     8 O     5.787190950610E-01  6.094757592800E-01  8.921190141960E-01

 *******************************************************************************
 LOCAL ATOMIC FUNCTIONS BASIS SET
 *******************************************************************************
   ATOM   X(AU)   Y(AU)   Z(AU)  N. TYPE  EXPONENT  S COEF   P COEF   D/F/G COEF
 *******************************************************************************
   1 SI   3.058   3.063   3.094
                                  1 S  
                                         1.499E+05 1.215E-04 0.000E+00 0.000E+00
                                         2.208E+04 9.770E-04 0.000E+00 0.000E+00
                                         4.818E+03 5.518E-03 0.000E+00 0.000E+00
                                         1.274E+03 2.520E-02 0.000E+00 0.000E+00
                                         3.851E+02 9.266E-02 0.000E+00 0.000E+00
                                         1.284E+02 2.609E-01 0.000E+00 0.000E+00
                                         4.545E+01 4.638E-01 0.000E+00 0.000E+00
                                         1.626E+01 2.952E-01 0.000E+00 0.000E+00
                           2-     5 SP 
                                         8.811E+02-3.000E-04 6.809E-04 0.000E+00
                                         2.058E+02-5.000E-03 5.945E-03 0.000E+00
                                         6.486E+01-3.680E-02 3.120E-02 0.000E+00
                                         2.390E+01-1.079E-01 1.084E-01 0.000E+00
                                         1.000E+01 1.340E-02 2.387E-01 0.000E+00
                                         4.472E+00 3.675E-01 3.560E-01 0.000E+00
                                         2.034E+00 5.685E-01 3.410E-01 0.000E+00
                                         9.079E-01 2.065E-01 1.326E-01 0.000E+00
                           6-     9 SP 
                                         3.709E+00 1.000E+00 1.000E+00 0.000E+00
                          10-    13 SP 
                                         1.054E+00 1.000E+00 1.000E+00 0.000E+00
                          14-    17 SP 
                                         3.851E-01 1.000E+00 1.000E+00 0.000E+00
                          18-    21 SP 
                                         1.271E-01 1.000E+00 1.000E+00 0.000E+00
                          22-    26 D  
                                         4.388E-01 0.000E+00 0.000E+00 1.000E+00
   2 SI   7.914   7.914   2.689
   3 SI  -7.892  -7.893   2.541
   4 SI  -2.829  -2.830   2.476
   5 SI   7.978   2.712   7.963
   6 SI  -7.716   7.823   7.808
   7 SI  -2.586  -7.778   7.737
   8 SI   2.626  -2.517   7.760
   9 SI  -7.843   2.547  -7.862
  10 SI  -2.594   7.753  -7.808
  11 SI   2.546  -7.837  -7.856
  12 SI   7.752  -2.593  -7.808
  13 SI  -2.747   2.530  -2.772
  14 SI   2.616   7.796  -2.554
  15 SI   7.749  -7.786  -2.595
  16 SI  -7.884  -2.675  -2.687
  17 SI   2.712   7.986   7.971
  18 SI   7.823  -7.715   7.810
  19 SI  -7.778  -2.585   7.737
  20 SI  -2.515   2.628   7.761
  21 SI   7.831   7.831  -7.720
  22 SI  -7.872  -7.873  -7.887
  23 SI  -2.661  -2.661  -7.890
  24 SI   2.587   2.587  -7.807
  25 SI  -7.784   7.749  -2.593
  26 SI  -2.674  -7.883  -2.685
  27 SI   2.534  -2.739  -2.762
  28 SI   7.797   2.618  -2.555
  29 SI  -2.521   7.797   2.620
  30 SI   2.581  -7.787   2.568
  31 SI   7.799  -2.523   2.619
  32 SI  -7.786   2.580   2.567
  33 SI  -0.468  -0.462  -0.422
  34 SI   5.355   5.354   0.067
  35 SI  10.456  10.457   0.073
  36 SI  -5.376  -5.375  -0.100
  37 SI   5.434   0.125   5.404
  38 SI  10.508   5.293   5.282
  39 SI  -5.123  10.416   5.207
  40 SI  -0.006  -5.155   5.129
  41 SI  10.505   0.078  10.486
  42 SI  -5.119   5.209  10.391
  43 SI   0.077  10.511  10.492
  44 SI   5.209  -5.118  10.392
  45 SI  -5.309  -0.076  -5.324
  46 SI   0.004   5.165  -5.187
  47 SI   5.217  10.425  -5.134
  48 SI  10.339  -5.199  -5.213
  49 SI   0.130   5.442   5.414
  50 SI   5.294  10.510   5.283
  51 SI  10.418  -5.124   5.209
  52 SI  -5.153  -0.005   5.129
  53 SI   5.306   5.306  10.502
  54 SI  10.503  10.503  10.486
  55 SI  -5.191  -5.191  10.333
  56 SI   0.051   0.051  10.399
  57 SI  10.425   5.219  -5.134
  58 SI  -5.198  10.340  -5.211
  59 SI  -0.075  -5.302  -5.317
  60 SI   5.166   0.006  -5.186
  61 SI  -5.152   5.159  -0.001
  62 SI   0.045  10.422   0.031
  63 SI   5.162  -5.154  -0.001
  64 SI  10.422   0.045   0.030
  65 O    1.094   1.152   1.686
                               1665 S  
                                         2.659E+04 3.385E-04 0.000E+00 0.000E+00
                                         4.070E+03 2.549E-03 0.000E+00 0.000E+00
                                         9.432E+02 1.294E-02 0.000E+00 0.000E+00
                                         2.704E+02 5.184E-02 0.000E+00 0.000E+00
                                         8.872E+01 1.644E-01 0.000E+00 0.000E+00
                                         3.204E+01 3.855E-01 0.000E+00 0.000E+00
                                         1.243E+01 5.623E-01 0.000E+00 0.000E+00
                                         4.976E+00 3.502E-01 0.000E+00 0.000E+00
                        1666-  1669 SP 
                                         6.298E+01-6.945E-03 6.339E-03 0.000E+00
                                         1.491E+01-7.654E-02 4.317E-02 0.000E+00
                                         4.612E+00-1.328E-01 1.573E-01 0.000E+00
                                         1.603E+00 3.790E-01 3.470E-01 0.000E+00
                        1670-  1673 SP 
                                         5.687E-01 1.000E+00 1.000E+00 0.000E+00
                        1674-  1677 SP 
                                         1.845E-01 1.000E+00 1.000E+00 0.000E+00
                        1678-  1682 D  
                                         1.387E+00 0.000E+00 0.000E+00 1.000E+00
                        1683-  1687 D  
                                         4.509E-01 0.000E+00 0.000E+00 1.000E+00
 INFORMATION **** SET_MPP **** PCRYSTAL CALCULATION
 INFORMATION **** READM2 **** NEW DEFAULT: FOCK/KS MATRIX MIXING SET TO 30 %
 INFORMATION **** READM2 **** NEW DEFAULT: FULL DIRECT SCF MODE
 INFORMATION **** READM2 **** NEW DEFAULT: COULOMB BIPOLAR BUFFER SET TO 32 Mb
 INFORMATION **** READM2 **** NEW DEFAULT: EXCHANGE BIPOLAR BUFFER SET TO 32 Mb

 *******************************************************************************
 NEW DEFAULT: DFT INTEGRATION GRID INCREASED TO XLGRID
 NEW DEFAULT: LEVEL SHIFTER 6 0
 IF THE SYSTEM IS A METAL USE KEYWORD NOSHIFT
 *******************************************************************************

 INFORMATION **** READM2 **** Pcrystal calculation selected
 INFORMATION **** READM2 **** Symmetry adaption of the Bloch functions enabled
 INFORMATION **** TOLINTEG **** COULOMB AND EXCHANGE SERIES TOLERANCES MODIFIED
 INFORMATION **** READM2 ****  FREQCALC - MULLIKEN POPULATION ANALYSIS NOT PERFORMED
 INFORMATION **** TOLDEE **** SCF TOL ON TOTAL ENERGY SET TO           8
 WARNING **** READM2 **** PROBABLE LOSS IN FREQCALC ACCURACY; SCF TOL LT          10
 *******************************************************************************
 N. OF ATOMS PER CELL        65  COULOMB OVERLAP TOL         (T1) 10**   -8
 NUMBER OF SHELLS           454  COULOMB PENETRATION TOL     (T2) 10**   -8
 NUMBER OF AO              1687  EXCHANGE OVERLAP TOL        (T3) 10**   -8
 N. OF ELECTRONS PER CELL   904  EXCHANGE PSEUDO OVP (F(G))  (T4) 10**  -10
 CORE ELECTRONS PER CELL    642  EXCHANGE PSEUDO OVP (P(G))  (T5) 10**  -30
 N. OF SYMMETRY OPERATORS     1  POLE ORDER IN MONO ZONE                  4
 *******************************************************************************
 TYPE OF CALCULATION :  RESTRICTED CLOSED SHELL
 KOHN-SHAM HAMILTONIAN

 (EXCHANGE)[CORRELATION] FUNCTIONAL:(BECKE 88)[LEE-YANG-PARR]

 NON-LOCAL WEIGHTING FACTOR (EXCHANGE) =           0.9000
 NON-LOCAL WEIGHTING FACTOR [CORRELATION] =        0.8100

 HYBRID EXCHANGE - PERCENTAGE OF FOCK EXCHANGE    20.0000
 EIGENVALUE LEVEL SHIFTING OF  0.600 HARTREE

 CAPPA:IS1  8;IS2  8;IS3  8; K PTS MONK NET 260; SYMMOPS:K SPACE   2;G SPACE   1

 *******************************************************************************
 MAX NUMBER OF SCF CYCLES      50  CONVERGENCE ON DELTAP        10**-18
 WEIGHT OF F(I) IN F(I+1)      30% CONVERGENCE ON ENERGY        10**- 8
 EIGENVALUE LEVEL SHIFTING OF  0.600 HARTREE
 SHRINK. FACT.(MONKH.)    8  8  8  NUMBER OF K POINTS IN THE IBZ    260
 SHRINKING FACTOR(GILAT NET)    8  NUMBER OF K POINTS(GILAT NET)    260
 *******************************************************************************
 *** K POINTS COORDINATES (OBLIQUE COORDINATES IN UNITS OF IS =  8)
   1-R(  0  0  0)   2-C(  1  0  0)   3-C(  2  0  0)   4-C(  3  0  0)
   5-R(  4  0  0)   6-C(  0  1  0)   7-C(  1  1  0)   8-C(  2  1  0)
   9-C(  3  1  0)  10-C(  4  1  0)  11-C(  5  1  0)  12-C(  6  1  0)
  13-C(  7  1  0)  14-C(  0  2  0)  15-C(  1  2  0)  16-C(  2  2  0)
  17-C(  3  2  0)  18-C(  4  2  0)  19-C(  5  2  0)  20-C(  6  2  0)
  21-C(  7  2  0)  22-C(  0  3  0)  23-C(  1  3  0)  24-C(  2  3  0)
  25-C(  3  3  0)  26-C(  4  3  0)  27-C(  5  3  0)  28-C(  6  3  0)
  29-C(  7  3  0)  30-R(  0  4  0)  31-C(  1  4  0)  32-C(  2  4  0)
  33-C(  3  4  0)  34-R(  4  4  0)  35-C(  0  0  1)  36-C(  1  0  1)
  37-C(  2  0  1)  38-C(  3  0  1)  39-C(  4  0  1)  40-C(  5  0  1)
  41-C(  6  0  1)  42-C(  7  0  1)  43-C(  0  1  1)  44-C(  1  1  1)
  45-C(  2  1  1)  46-C(  3  1  1)  47-C(  4  1  1)  48-C(  5  1  1)
  49-C(  6  1  1)  50-C(  7  1  1)  51-C(  0  2  1)  52-C(  1  2  1)
  53-C(  2  2  1)  54-C(  3  2  1)  55-C(  4  2  1)  56-C(  5  2  1)
  57-C(  6  2  1)  58-C(  7  2  1)  59-C(  0  3  1)  60-C(  1  3  1)
  61-C(  2  3  1)  62-C(  3  3  1)  63-C(  4  3  1)  64-C(  5  3  1)
  65-C(  6  3  1)  66-C(  7  3  1)  67-C(  0  4  1)  68-C(  1  4  1)
  69-C(  2  4  1)  70-C(  3  4  1)  71-C(  4  4  1)  72-C(  5  4  1)
  73-C(  6  4  1)  74-C(  7  4  1)  75-C(  0  5  1)  76-C(  1  5  1)
  77-C(  2  5  1)  78-C(  3  5  1)  79-C(  4  5  1)  80-C(  5  5  1)
  81-C(  6  5  1)  82-C(  7  5  1)  83-C(  0  6  1)  84-C(  1  6  1)
  85-C(  2  6  1)  86-C(  3  6  1)  87-C(  4  6  1)  88-C(  5  6  1)
  89-C(  6  6  1)  90-C(  7  6  1)  91-C(  0  7  1)  92-C(  1  7  1)
  93-C(  2  7  1)  94-C(  3  7  1)  95-C(  4  7  1)  96-C(  5  7  1)
  97-C(  6  7  1)  98-C(  7  7  1)  99-C(  0  0  2) 100-C(  1  0  2)
 101-C(  2  0  2) 102-C(  3  0  2) 103-C(  4  0  2) 104-C(  5  0  2)
 105-C(  6  0  2) 106-C(  7  0  2) 107-C(  0  1  2) 108-C(  1  1  2)
 109-C(  2  1  2) 110-C(  3  1  2) 111-C(  4  1  2) 112-C(  5  1  2)
 113-C(  6  1  2) 114-C(  7  1  2) 115-C(  0  2  2) 116-C(  1  2  2)
 117-C(  2  2  2) 118-C(  3  2  2) 119-C(  4  2  2) 120-C(  5  2  2)
 121-C(  6  2  2) 122-C(  7  2  2) 123-C(  0  3  2) 124-C(  1  3  2)
 125-C(  2  3  2) 126-C(  3  3  2) 127-C(  4  3  2) 128-C(  5  3  2)
 129-C(  6  3  2) 130-C(  7  3  2) 131-C(  0  4  2) 132-C(  1  4  2)
 133-C(  2  4  2) 134-C(  3  4  2) 135-C(  4  4  2) 136-C(  5  4  2)
 137-C(  6  4  2) 138-C(  7  4  2) 139-C(  0  5  2) 140-C(  1  5  2)
 141-C(  2  5  2) 142-C(  3  5  2) 143-C(  4  5  2) 144-C(  5  5  2)
 145-C(  6  5  2) 146-C(  7  5  2) 147-C(  0  6  2) 148-C(  1  6  2)
 149-C(  2  6  2) 150-C(  3  6  2) 151-C(  4  6  2) 152-C(  5  6  2)
 153-C(  6  6  2) 154-C(  7  6  2) 155-C(  0  7  2) 156-C(  1  7  2)
 157-C(  2  7  2) 158-C(  3  7  2) 159-C(  4  7  2) 160-C(  5  7  2)
 161-C(  6  7  2) 162-C(  7  7  2) 163-C(  0  0  3) 164-C(  1  0  3)
 165-C(  2  0  3) 166-C(  3  0  3) 167-C(  4  0  3) 168-C(  5  0  3)
 169-C(  6  0  3) 170-C(  7  0  3) 171-C(  0  1  3) 172-C(  1  1  3)
 173-C(  2  1  3) 174-C(  3  1  3) 175-C(  4  1  3) 176-C(  5  1  3)
 177-C(  6  1  3) 178-C(  7  1  3) 179-C(  0  2  3) 180-C(  1  2  3)
 181-C(  2  2  3) 182-C(  3  2  3) 183-C(  4  2  3) 184-C(  5  2  3)
 185-C(  6  2  3) 186-C(  7  2  3) 187-C(  0  3  3) 188-C(  1  3  3)
 189-C(  2  3  3) 190-C(  3  3  3) 191-C(  4  3  3) 192-C(  5  3  3)
 193-C(  6  3  3) 194-C(  7  3  3) 195-C(  0  4  3) 196-C(  1  4  3)
 197-C(  2  4  3) 198-C(  3  4  3) 199-C(  4  4  3) 200-C(  5  4  3)
 201-C(  6  4  3) 202-C(  7  4  3) 203-C(  0  5  3) 204-C(  1  5  3)
 205-C(  2  5  3) 206-C(  3  5  3) 207-C(  4  5  3) 208-C(  5  5  3)
 209-C(  6  5  3) 210-C(  7  5  3) 211-C(  0  6  3) 212-C(  1  6  3)
 213-C(  2  6  3) 214-C(  3  6  3) 215-C(  4  6  3) 216-C(  5  6  3)
 217-C(  6  6  3) 218-C(  7  6  3) 219-C(  0  7  3) 220-C(  1  7  3)
 221-C(  2  7  3) 222-C(  3  7  3) 223-C(  4  7  3) 224-C(  5  7  3)
 225-C(  6  7  3) 226-C(  7  7  3) 227-R(  0  0  4) 228-C(  1  0  4)
 229-C(  2  0  4) 230-C(  3  0  4) 231-R(  4  0  4) 232-C(  0  1  4)
 233-C(  1  1  4) 234-C(  2  1  4) 235-C(  3  1  4) 236-C(  4  1  4)
 237-C(  5  1  4) 238-C(  6  1  4) 239-C(  7  1  4) 240-C(  0  2  4)
 241-C(  1  2  4) 242-C(  2  2  4) 243-C(  3  2  4) 244-C(  4  2  4)
 245-C(  5  2  4) 246-C(  6  2  4) 247-C(  7  2  4) 248-C(  0  3  4)
 249-C(  1  3  4) 250-C(  2  3  4) 251-C(  3  3  4) 252-C(  4  3  4)
 253-C(  5  3  4) 254-C(  6  3  4) 255-C(  7  3  4) 256-R(  0  4  4)
 257-C(  1  4  4) 258-C(  2  4  4) 259-C(  3  4  4) 260-R(  4  4  4)

 DIRECT LATTICE VECTORS COMPON. (A.U.)     RECIP. LATTICE VECTORS COMPON. (A.U.) 
        X            Y            Z              X            Y            Z
   20.8271070    0.0775137    0.0775272      0.3016914   -0.0011190   -0.0011138
    0.0775404   20.8277184    0.0775576     -0.0011186    0.3016825   -0.0011139
    0.0771738    0.0771806   20.8257148     -0.0011189   -0.0011193    0.3017115

 DISK SPACE FOR EIGENVECTORS (FTN 10)  1457136128 REALS

 SYMMETRY ADAPTION OF THE BLOCH FUNCTIONS ENABLED
 TTTTTTTTTTTTTTTTTTTTTTTTTTTTTT gordsh1     TELAPSE        0.01 TCPU        0.01

 MATRIX SIZE: P(G) 9353497, F(G)  906754, P(G) IRR 4689454, F(G) IRR  909352
 MAX G-VECTOR INDEX FOR 1- AND 2-ELECTRON INTEGRALS  81

 TTTTTTTTTTTTTTTTTTTTTTTTTTTTTT INPUT       TELAPSE        6.33 TCPU        6.31

 NEIGHBORS OF THE NON-EQUIVALENT ATOMS

 N = NUMBER OF NEIGHBORS AT DISTANCE R
    ATOM  N     R/ANG      R/AU   NEIGHBORS (ATOM LABELS AND CELL INDICES)
   1 SI   1     1.6304     3.0810   65 O    0 0 0
   1 SI   1     2.3435     4.4285   49 SI   0 0 0
   1 SI   1     2.3437     4.4290   37 SI   0 0 0
   1 SI   1     2.3481     4.4372   34 SI   0 0 0
   1 SI   1     3.2284     6.1008   33 SI   0 0 0
   1 SI   1     3.6387     6.8762    2 SI   0 0 0

   2 SI   1     2.3529     4.4463   35 SI   0 0 0
   2 SI   1     2.3653     4.4699   34 SI   0 0 0
   2 SI   1     2.3856     4.5081   38 SI   0 0 0
   2 SI   1     2.3859     4.5088   50 SI   0 0 0
   2 SI   1     3.6387     6.8762    1 SI   0 0 0
   2 SI   1     3.8154     7.2101    3 SI   1 1 0

   3 SI   1     2.3456     4.4326   36 SI   0 0 0
   3 SI   1     2.3633     4.4659   35 SI  -1-1 0
   3 SI   1     2.3837     4.5046   51 SI  -1 0 0
   3 SI   1     2.3837     4.5046   39 SI   0-1 0
   3 SI   1     3.7893     7.1608    4 SI   0 0 0
   3 SI   1     3.8154     7.2101    2 SI  -1-1 0

   4 SI   1     2.3414     4.4247   33 SI   0 0 0
   4 SI   1     2.3429     4.4275   36 SI   0 0 0
   4 SI   1     2.3908     4.5180   40 SI   0 0 0
   4 SI   1     2.3911     4.5186   52 SI   0 0 0
   4 SI   1     2.9870     5.6447   65 O    0 0 0
   4 SI   1     3.7893     7.1608    3 SI   0 0 0

   5 SI   1     2.3478     4.4366   41 SI   0 0 0
   5 SI   1     2.3494     4.4397   37 SI   0 0 0
   5 SI   1     2.3815     4.5005   38 SI   0 0 0
   5 SI   1     2.3854     4.5078   53 SI   0 0 0
   5 SI   1     3.6680     6.9316    1 SI   0 0 0
   5 SI   1     3.8024     7.1854    9 SI   1 0 1

   6 SI   1     2.3790     4.4956   39 SI   0 0 0
   6 SI   1     2.3809     4.4992   42 SI   0 0 0
   6 SI   1     2.3866     4.5100   54 SI  -1 0 0
   6 SI   1     2.3876     4.5119   38 SI  -1 0 0
   6 SI   1     3.8553     7.2855    3 SI   0 1 0
   6 SI   1     3.8626     7.2993    5 SI  -1 0 0

   7 SI   1     2.3795     4.4966   55 SI   0 0 0
   7 SI   1     2.3842     4.5054   43 SI   0-1 0
   7 SI   1     2.3869     4.5107   40 SI   0 0 0
   7 SI   1     2.3999     4.5351   39 SI   0-1 0
   7 SI   1     3.8244     7.2270    4 SI   0 0 0
   7 SI   1     3.8496     7.2746   17 SI   0-1 0

   8 SI   1     2.3775     4.4927   56 SI   0 0 0
   8 SI   1     2.3880     4.5126   44 SI   0 0 0
   8 SI   1     2.3911     4.5185   37 SI   0 0 0
   8 SI   1     2.4141     4.5619   40 SI   0 0 0
   8 SI   1     3.8417     7.2598   65 O    0 0 0
   8 SI   1     3.8485     7.2727   20 SI   0 0 0

   9 SI   1     2.3510     4.4427   45 SI   0 0 0
   9 SI   1     2.3635     4.4664   41 SI  -1 0-1
   9 SI   1     2.3842     4.5055   57 SI  -1 0 0
   9 SI   1     2.3848     4.5066   42 SI   0 0-1
   9 SI   1     3.8024     7.1854    5 SI  -1 0-1
   9 SI   1     3.8113     7.2023   13 SI   0 0 0

  10 SI   1     2.3794     4.4965   58 SI   0 0 0
  10 SI   1     2.3838     4.5048   43 SI   0 0-1
  10 SI   1     2.3851     4.5071   46 SI   0 0 0
  10 SI   1     2.3983     4.5321   42 SI   0 0-1
  10 SI   1     3.8403     7.2570   13 SI   0 0 0
  10 SI   1     3.8465     7.2689   17 SI   0 0-1

  11 SI   1     2.3514     4.4435   59 SI   0 0 0
  11 SI   1     2.3634     4.4662   43 SI   0-1-1
  11 SI   1     2.3844     4.5058   47 SI   0-1 0
  11 SI   1     2.3849     4.5067   44 SI   0 0-1
  11 SI   1     3.8009     7.1827   17 SI   0-1-1
  11 SI   1     3.8137     7.2069   27 SI   0 0 0

  12 SI   1     2.3796     4.4969   48 SI   0 0 0
  12 SI   1     2.3838     4.5048   41 SI   0 0-1
  12 SI   1     2.3851     4.5072   60 SI   0 0 0
  12 SI   1     2.3980     4.5315   44 SI   0 0-1
  12 SI   1     3.8419     7.2601   27 SI   0 0 0
  12 SI   1     3.8486     7.2728    5 SI   0 0-1

  13 SI   1     2.3467     4.4347   33 SI   0 0 0
  13 SI   1     2.3589     4.4576   45 SI   0 0 0
  13 SI   1     2.3866     4.5099   46 SI   0 0 0
  13 SI   1     2.3886     4.5138   61 SI   0 0 0
  13 SI   1     3.1980     6.0434   65 O    0 0 0
  13 SI   1     3.8113     7.2023    9 SI   0 0 0

  14 SI   1     2.3780     4.4938   62 SI   0 0 0
  14 SI   1     2.3859     4.5087   47 SI   0 0 0
  14 SI   1     2.3862     4.5093   34 SI   0 0 0
  14 SI   1     2.4063     4.5472   46 SI   0 0 0
  14 SI   1     3.8582     7.2910   29 SI   0 0 0
  14 SI   1     3.8766     7.3257   28 SI   0 0 0

  15 SI   1     2.3816     4.5005   48 SI   0 0 0
  15 SI   1     2.3848     4.5066   35 SI   0-1 0
  15 SI   1     2.3872     4.5112   63 SI   0 0 0
  15 SI   1     2.3965     4.5287   47 SI   0-1 0
  15 SI   1     3.8413     7.2590   27 SI   0 0 0
  15 SI   1     3.8659     7.3055   30 SI   0 0 0

  16 SI   1     2.3826     4.5025   36 SI   0 0 0
  16 SI   1     2.3842     4.5055   64 SI  -1 0 0
  16 SI   1     2.3859     4.5088   48 SI  -1 0 0
  16 SI   1     2.3865     4.5099   45 SI   0 0 0
  16 SI   1     3.8243     7.2269    4 SI   0 0 0
  16 SI   1     3.8701     7.3135   13 SI   0 0 0

  17 SI   1     2.3471     4.4354   43 SI   0 0 0
  17 SI   1     2.3475     4.4361   49 SI   0 0 0
  17 SI   1     2.3816     4.5006   50 SI   0 0 0
  17 SI   1     2.3850     4.5070   53 SI   0 0 0
  17 SI   1     3.6715     6.9381    1 SI   0 0 0
  17 SI   1     3.8009     7.1827   11 SI   0 1 1

  18 SI   1     2.3789     4.4954   51 SI   0 0 0
  18 SI   1     2.3810     4.4995   44 SI   0 0 0
  18 SI   1     2.3866     4.5100   54 SI   0-1 0
  18 SI   1     2.3874     4.5115   50 SI   0-1 0
  18 SI   1     3.8556     7.2859    3 SI   1 0 0
  18 SI   1     3.8603     7.2948   17 SI   0-1 0

  19 SI   1     2.3797     4.4969   55 SI   0 0 0
  19 SI   1     2.3842     4.5054   41 SI  -1 0 0
  19 SI   1     2.3871     4.5109   52 SI   0 0 0
  19 SI   1     2.3997     4.5347   51 SI  -1 0 0
  19 SI   1     3.8244     7.2271    4 SI   0 0 0
  19 SI   1     3.8515     7.2782    5 SI  -1 0 0

  20 SI   1     2.3773     4.4925   56 SI   0 0 0
  20 SI   1     2.3881     4.5128   42 SI   0 0 0
  20 SI   1     2.3915     4.5192   49 SI   0 0 0
  20 SI   1     2.4144     4.5626   52 SI   0 0 0
  20 SI   1     3.8197     7.2182   65 O    0 0 0
  20 SI   1     3.8485     7.2727    8 SI   0 0 0

  21 SI   1     2.3807     4.4989   57 SI   0 0 0
  21 SI   1     2.3810     4.4995   47 SI   0 0 0
  21 SI   1     2.3855     4.5079   53 SI   0 0-1
  21 SI   1     2.3859     4.5086   54 SI   0 0-1
  21 SI   1     3.8658     7.3054   17 SI   0 0-1
  21 SI   1     3.8691     7.3115    5 SI   0 0-1

  22 SI   1     2.3861     4.5090   48 SI  -1 0 0
  22 SI   1     2.3861     4.5091   58 SI   0-1 0
  22 SI   1     2.3868     4.5104   55 SI   0 0-1
  22 SI   1     2.3894     4.5153   54 SI  -1-1-1
  22 SI   1     3.8910     7.3529   16 SI   0 0 0
  22 SI   1     3.8916     7.3541   26 SI   0 0 0

  23 SI   1     2.3831     4.5034   45 SI   0 0 0
  23 SI   1     2.3833     4.5038   59 SI   0 0 0
  23 SI   1     2.3856     4.5081   56 SI   0 0-1
  23 SI   1     2.3883     4.5132   55 SI   0 0-1
  23 SI   1     3.8580     7.2906   13 SI   0 0 0
  23 SI   1     3.8630     7.3001   27 SI   0 0 0

  24 SI   1     2.3774     4.4927   46 SI   0 0 0
  24 SI   1     2.3777     4.4931   60 SI   0 0 0
  24 SI   1     2.3840     4.5051   53 SI   0 0-1
  24 SI   1     2.3971     4.5298   56 SI   0 0-1
  24 SI   1     3.8710     7.3151   12 SI   0 0 0
  24 SI   1     3.8713     7.3157   10 SI   0 0 0

  25 SI   1     2.3816     4.5006   58 SI   0 0 0
  25 SI   1     2.3848     4.5067   35 SI  -1 0 0
  25 SI   1     2.3874     4.5115   61 SI   0 0 0
  25 SI   1     2.3966     4.5290   57 SI  -1 0 0
  25 SI   1     3.8394     7.2553   13 SI   0 0 0
  25 SI   1     3.8652     7.3041   32 SI   0 0 0

  26 SI   1     2.3825     4.5024   36 SI   0 0 0
  26 SI   1     2.3842     4.5055   62 SI   0-1 0
  26 SI   1     2.3862     4.5092   58 SI   0-1 0
  26 SI   1     2.3866     4.5101   59 SI   0 0 0
  26 SI   1     3.8232     7.2248    4 SI   0 0 0
  26 SI   1     3.8736     7.3200   27 SI   0 0 0

  27 SI   1     2.3473     4.4358   33 SI   0 0 0
  27 SI   1     2.3606     4.4608   59 SI   0 0 0
  27 SI   1     2.3864     4.5097   60 SI   0 0 0
  27 SI   1     2.3880     4.5127   63 SI   0 0 0
  27 SI   1     3.2189     6.0829   65 O    0 0 0
  27 SI   1     3.8137     7.2069   11 SI   0 0 0

  28 SI   1     2.3779     4.4937   64 SI   0 0 0
  28 SI   1     2.3858     4.5084   57 SI   0 0 0
  28 SI   1     2.3859     4.5087   34 SI   0 0 0
  28 SI   1     2.4059     4.5464   60 SI   0 0 0
  28 SI   1     3.8597     7.2938   31 SI   0 0 0
  28 SI   1     3.8766     7.3257   14 SI   0 0 0

  29 SI   1     2.3769     4.4917   62 SI   0 0 0
  29 SI   1     2.3858     4.5085   39 SI   0 0 0
  29 SI   1     2.3888     4.5142   49 SI   0 0 0
  29 SI   1     2.4106     4.5553   61 SI   0 0 0
  29 SI   1     3.8579     7.2903   20 SI   0 0 0
  29 SI   1     3.8582     7.2910   14 SI   0 0 0

  30 SI   1     2.3769     4.4916   40 SI   0 0 0
  30 SI   1     2.3779     4.4937   63 SI   0 0 0
  30 SI   1     2.3850     4.5069   50 SI   0-1 0
  30 SI   1     2.3970     4.5297   62 SI   0-1 0
  30 SI   1     3.8659     7.3055   15 SI   0 0 0
  30 SI   1     3.8675     7.3084    7 SI   0 0 0

  31 SI   1     2.3771     4.4920   64 SI   0 0 0
  31 SI   1     2.3855     4.5080   51 SI   0 0 0
  31 SI   1     2.3882     4.5130   37 SI   0 0 0
  31 SI   1     2.4098     4.5539   63 SI   0 0 0
  31 SI   1     3.8597     7.2937    8 SI   0 0 0
  31 SI   1     3.8597     7.2938   28 SI   0 0 0

  32 SI   1     2.3770     4.4918   52 SI   0 0 0
  32 SI   1     2.3779     4.4935   61 SI   0 0 0
  32 SI   1     2.3851     4.5072   38 SI  -1 0 0
  32 SI   1     2.3971     4.5298   64 SI  -1 0 0
  32 SI   1     3.8652     7.3041   25 SI   0 0 0
  32 SI   1     3.8672     7.3079   19 SI   0 0 0

  33 SI   1     1.6300     3.0802   65 O    0 0 0
  33 SI   1     2.3414     4.4247    4 SI   0 0 0
  33 SI   1     2.3467     4.4347   13 SI   0 0 0
  33 SI   1     2.3473     4.4358   27 SI   0 0 0
  33 SI   1     3.2284     6.1008    1 SI   0 0 0
  33 SI   1     3.6486     6.8948   59 SI   0 0 0

  34 SI   1     2.3481     4.4372    1 SI   0 0 0
  34 SI   1     2.3653     4.4699    2 SI   0 0 0
  34 SI   1     2.3859     4.5087   28 SI   0 0 0
  34 SI   1     2.3862     4.5093   14 SI   0 0 0
  34 SI   1     3.2808     6.1998   65 O    0 0 0
  34 SI   1     3.8183     7.2156   35 SI   0 0 0

  35 SI   1     2.3529     4.4463    2 SI   0 0 0
  35 SI   1     2.3633     4.4659    3 SI   1 1 0
  35 SI   1     2.3848     4.5066   15 SI   0 1 0
  35 SI   1     2.3848     4.5067   25 SI   1 0 0
  35 SI   1     3.7965     7.1743   36 SI   1 1 0
  35 SI   1     3.8183     7.2156   34 SI   0 0 0

  36 SI   1     2.3429     4.4275    4 SI   0 0 0
  36 SI   1     2.3456     4.4326    3 SI   0 0 0
  36 SI   1     2.3825     4.5024   26 SI   0 0 0
  36 SI   1     2.3826     4.5025   16 SI   0 0 0
  36 SI   1     3.6787     6.9517   33 SI   0 0 0
  36 SI   1     3.7965     7.1743   35 SI  -1-1 0

  37 SI   1     2.3437     4.4290    1 SI   0 0 0
  37 SI   1     2.3494     4.4397    5 SI   0 0 0
  37 SI   1     2.3882     4.5130   31 SI   0 0 0
  37 SI   1     2.3911     4.5185    8 SI   0 0 0
  37 SI   1     3.0728     5.8068   65 O    0 0 0
  37 SI   1     3.7991     7.1793   41 SI   0 0 0

  38 SI   1     2.3815     4.5005    5 SI   0 0 0
  38 SI   1     2.3851     4.5072   32 SI   1 0 0
  38 SI   1     2.3856     4.5081    2 SI   0 0 0
  38 SI   1     2.3876     4.5119    6 SI   1 0 0
  38 SI   1     3.8333     7.2438   37 SI   0 0 0
  38 SI   1     3.8799     7.3319   34 SI   0 0 0

  39 SI   1     2.3790     4.4956    6 SI   0 0 0
  39 SI   1     2.3837     4.5046    3 SI   0 1 0
  39 SI   1     2.3858     4.5085   29 SI   0 0 0
  39 SI   1     2.3999     4.5351    7 SI   0 1 0
  39 SI   1     3.8300     7.2376   49 SI   0 0 0
  39 SI   1     3.8434     7.2629   36 SI   0 1 0

  40 SI   1     2.3769     4.4916   30 SI   0 0 0
  40 SI   1     2.3869     4.5107    7 SI   0 0 0
  40 SI   1     2.3908     4.5180    4 SI   0 0 0
  40 SI   1     2.4141     4.5619    8 SI   0 0 0
  40 SI   1     3.8464     7.2686   65 O    0 0 0
  40 SI   1     3.8530     7.2810   63 SI   0 0 0

  41 SI   1     2.3478     4.4366    5 SI   0 0 0
  41 SI   1     2.3635     4.4664    9 SI   1 0 1
  41 SI   1     2.3838     4.5048   12 SI   0 0 1
  41 SI   1     2.3842     4.5054   19 SI   1 0 0
  41 SI   1     3.7991     7.1793   37 SI   0 0 0
  41 SI   1     3.8103     7.2005   45 SI   1 0 1

  42 SI   1     2.3809     4.4992    6 SI   0 0 0
  42 SI   1     2.3848     4.5066    9 SI   0 0 1
  42 SI   1     2.3881     4.5128   20 SI   0 0 0
  42 SI   1     2.3983     4.5321   10 SI   0 0 1
  42 SI   1     3.8298     7.2373   49 SI   0 0 0
  42 SI   1     3.8618     7.2977   45 SI   0 0 1

  43 SI   1     2.3471     4.4354   17 SI   0 0 0
  43 SI   1     2.3634     4.4662   11 SI   0 1 1
  43 SI   1     2.3838     4.5048   10 SI   0 0 1
  43 SI   1     2.3842     4.5054    7 SI   0 1 0
  43 SI   1     3.7969     7.1751   49 SI   0 0 0
  43 SI   1     3.8118     7.2033   59 SI   0 1 1

  44 SI   1     2.3810     4.4995   18 SI   0 0 0
  44 SI   1     2.3849     4.5067   11 SI   0 0 1
  44 SI   1     2.3880     4.5126    8 SI   0 0 0
  44 SI   1     2.3980     4.5315   12 SI   0 0 1
  44 SI   1     3.8313     7.2401   37 SI   0 0 0
  44 SI   1     3.8635     7.3009   59 SI   0 0 1

  45 SI   1     2.3510     4.4427    9 SI   0 0 0
  45 SI   1     2.3589     4.4576   13 SI   0 0 0
  45 SI   1     2.3831     4.5034   23 SI   0 0 0
  45 SI   1     2.3865     4.5099   16 SI   0 0 0
  45 SI   1     3.6515     6.9003   33 SI   0 0 0
  45 SI   1     3.8103     7.2005   41 SI  -1 0-1

  46 SI   1     2.3774     4.4927   24 SI   0 0 0
  46 SI   1     2.3851     4.5071   10 SI   0 0 0
  46 SI   1     2.3866     4.5099   13 SI   0 0 0
  46 SI   1     2.4063     4.5472   14 SI   0 0 0
  46 SI   1     3.8622     7.2986   60 SI   0 0 0
  46 SI   1     3.8695     7.3123   61 SI   0 0 0

  47 SI   1     2.3810     4.4995   21 SI   0 0 0
  47 SI   1     2.3844     4.5058   11 SI   0 1 0
  47 SI   1     2.3859     4.5087   14 SI   0 0 0
  47 SI   1     2.3965     4.5287   15 SI   0 1 0
  47 SI   1     3.8444     7.2649   34 SI   0 0 0
  47 SI   1     3.8605     7.2952   59 SI   0 1 0

  48 SI   1     2.3796     4.4969   12 SI   0 0 0
  48 SI   1     2.3816     4.5005   15 SI   0 0 0
  48 SI   1     2.3859     4.5088   16 SI   1 0 0
  48 SI   1     2.3861     4.5090   22 SI   1 0 0
  48 SI   1     3.8555     7.2858   36 SI   1 0 0
  48 SI   1     3.8644     7.3026   41 SI   0 0-1

  49 SI   1     2.3435     4.4285    1 SI   0 0 0
  49 SI   1     2.3475     4.4361   17 SI   0 0 0
  49 SI   1     2.3888     4.5142   29 SI   0 0 0
  49 SI   1     2.3915     4.5192   20 SI   0 0 0
  49 SI   1     3.0505     5.7646   65 O    0 0 0
  49 SI   1     3.7969     7.1751   43 SI   0 0 0

  50 SI   1     2.3816     4.5006   17 SI   0 0 0
  50 SI   1     2.3850     4.5069   30 SI   0 1 0
  50 SI   1     2.3859     4.5088    2 SI   0 0 0
  50 SI   1     2.3874     4.5115   18 SI   0 1 0
  50 SI   1     3.8294     7.2366   49 SI   0 0 0
  50 SI   1     3.8805     7.3330   63 SI   0 1 0

  51 SI   1     2.3789     4.4954   18 SI   0 0 0
  51 SI   1     2.3837     4.5046    3 SI   1 0 0
  51 SI   1     2.3855     4.5080   31 SI   0 0 0
  51 SI   1     2.3997     4.5347   19 SI   1 0 0
  51 SI   1     3.8315     7.2404   37 SI   0 0 0
  51 SI   1     3.8429     7.2621   36 SI   1 0 0

  52 SI   1     2.3770     4.4918   32 SI   0 0 0
  52 SI   1     2.3871     4.5109   19 SI   0 0 0
  52 SI   1     2.3911     4.5186    4 SI   0 0 0
  52 SI   1     2.4144     4.5626   20 SI   0 0 0
  52 SI   1     3.8238     7.2260   65 O    0 0 0
  52 SI   1     3.8514     7.2780   33 SI   0 0 0

  53 SI   1     2.3840     4.5051   24 SI   0 0 1
  53 SI   1     2.3850     4.5070   17 SI   0 0 0
  53 SI   1     2.3854     4.5078    5 SI   0 0 0
  53 SI   1     2.3855     4.5079   21 SI   0 0 1
  53 SI   1     3.8414     7.2591   49 SI   0 0 0
  53 SI   1     3.8467     7.2693   37 SI   0 0 0

  54 SI   1     2.3859     4.5086   21 SI   0 0 1
  54 SI   1     2.3866     4.5100   18 SI   0 1 0
  54 SI   1     2.3866     4.5100    6 SI   1 0 0
  54 SI   1     2.3894     4.5153   22 SI   1 1 1
  54 SI   1     3.8893     7.3496   53 SI   0 0 0
  54 SI   1     3.8921     7.3549   51 SI   0 1 0

  55 SI   1     2.3795     4.4966    7 SI   0 0 0
  55 SI   1     2.3797     4.4969   19 SI   0 0 0
  55 SI   1     2.3868     4.5104   22 SI   0 0 1
  55 SI   1     2.3883     4.5132   23 SI   0 0 1
  55 SI   1     3.8607     7.2957   43 SI   0-1 0
  55 SI   1     3.8631     7.3003   41 SI  -1 0 0

  56 SI   1     2.3773     4.4925   20 SI   0 0 0
  56 SI   1     2.3775     4.4927    8 SI   0 0 0
  56 SI   1     2.3856     4.5081   23 SI   0 0 1
  56 SI   1     2.3971     4.5298   24 SI   0 0 1
  56 SI   1     3.8643     7.3025   44 SI   0 0 0
  56 SI   1     3.8647     7.3031   42 SI   0 0 0

  57 SI   1     2.3807     4.4989   21 SI   0 0 0
  57 SI   1     2.3842     4.5055    9 SI   1 0 0
  57 SI   1     2.3858     4.5084   28 SI   0 0 0
  57 SI   1     2.3966     4.5290   25 SI   1 0 0
  57 SI   1     3.8445     7.2650   34 SI   0 0 0
  57 SI   1     3.8585     7.2916   45 SI   1 0 0

  58 SI   1     2.3794     4.4965   10 SI   0 0 0
  58 SI   1     2.3816     4.5006   25 SI   0 0 0
  58 SI   1     2.3861     4.5091   22 SI   0 1 0
  58 SI   1     2.3862     4.5092   26 SI   0 1 0
  58 SI   1     3.8550     7.2849   36 SI   0 1 0
  58 SI   1     3.8623     7.2987   43 SI   0 0-1

  59 SI   1     2.3514     4.4435   11 SI   0 0 0
  59 SI   1     2.3606     4.4608   27 SI   0 0 0
  59 SI   1     2.3833     4.5038   23 SI   0 0 0
  59 SI   1     2.3866     4.5101   26 SI   0 0 0
  59 SI   1     3.6486     6.8948   33 SI   0 0 0
  59 SI   1     3.8118     7.2033   43 SI   0-1-1

  60 SI   1     2.3777     4.4931   24 SI   0 0 0
  60 SI   1     2.3851     4.5072   12 SI   0 0 0
  60 SI   1     2.3864     4.5097   27 SI   0 0 0
  60 SI   1     2.4059     4.5464   28 SI   0 0 0
  60 SI   1     3.8622     7.2986   46 SI   0 0 0
  60 SI   1     3.8711     7.3153   63 SI   0 0 0

  61 SI   1     2.3779     4.4935   32 SI   0 0 0
  61 SI   1     2.3874     4.5115   25 SI   0 0 0
  61 SI   1     2.3886     4.5138   13 SI   0 0 0
  61 SI   1     2.4106     4.5553   29 SI   0 0 0
  61 SI   1     3.8520     7.2791   52 SI   0 0 0
  61 SI   1     3.8695     7.3123   46 SI   0 0 0

  62 SI   1     2.3769     4.4917   29 SI   0 0 0
  62 SI   1     2.3780     4.4938   14 SI   0 0 0
  62 SI   1     2.3842     4.5055   26 SI   0 1 0
  62 SI   1     2.3970     4.5297   30 SI   0 1 0
  62 SI   1     3.8682     7.3098   47 SI   0 0 0
  62 SI   1     3.8706     7.3144   39 SI   0 0 0

  63 SI   1     2.3779     4.4937   30 SI   0 0 0
  63 SI   1     2.3872     4.5112   15 SI   0 0 0
  63 SI   1     2.3880     4.5127   27 SI   0 0 0
  63 SI   1     2.4098     4.5539   31 SI   0 0 0
  63 SI   1     3.8530     7.2810   40 SI   0 0 0
  63 SI   1     3.8711     7.3153   60 SI   0 0 0

  64 SI   1     2.3771     4.4920   31 SI   0 0 0
  64 SI   1     2.3779     4.4937   28 SI   0 0 0
  64 SI   1     2.3842     4.5055   16 SI   1 0 0
  64 SI   1     2.3971     4.5298   32 SI   1 0 0
  64 SI   1     3.8687     7.3107   57 SI   0 0 0
  64 SI   1     3.8715     7.3160   51 SI   0 0 0

  65 O    1     1.6300     3.0802   33 SI   0 0 0
  65 O    1     1.6304     3.0810    1 SI   0 0 0
  65 O    1     2.9870     5.6447    4 SI   0 0 0
  65 O    1     3.0505     5.7646   49 SI   0 0 0
  65 O    1     3.0728     5.8068   37 SI   0 0 0
  65 O    1     3.1980     6.0434   13 SI   0 0 0


 SYMMETRY ALLOWED INTERNAL DEGREE(S) OF FREEDOM: 192
 TTTTTTTTTTTTTTTTTTTTTTTTTTTTTT SYMM        TELAPSE        6.33 TCPU        6.31
 TTTTTTTTTTTTTTTTTTTTTTTTTTTTTT INT_SCREEN  TELAPSE        6.53 TCPU        6.51

 *******************************************************************************
 *                                                                             *
 *                                                                             *
 *         FFFFF  RRRR   EEEE   QQQ   U   U  EEEE  N   N   CCC  Y   Y          *
 *         F      R   R  E     Q   Q  U   U  E     NN  N  C      Y Y           *
 *         FFF    RRRR   EEEE  Q   Q  U   U  EEEE  N N N  C       Y            *
 *         F      R   R  E     Q  QQ  U   U  E     N  NN  C       Y            *
 *         F      R   R  EEEE   QQ Q   UUU   EEEE  N   N   CCC    Y            *
 *                                                                             *
 *                                                                             *
 * CALCULATION OF PHONON FREQUENCIES AT THE GAMMA POINT.                       *
 *                                                                             *
 * SYMMETRY IS EXPLOITED TO BUILD THE TOTAL HESSIAN MATRIX.                    *
 * (F. PASCALE PHD THESIS TURIN-PARIS 2002)                                    *
 *                                                                             *
 *******************************************************************************


 * INTENSITIES COMPUTED VIA THE BERRY PHASE APPROACH                           *
 *                                                                             *
 * REFERENCES TO BE QUOTED WHEN USING THIS MODULE:                             *
 *                                                                             *
 * F. Pascale, C.M. Zicovich-Wilson, F. Lopez, B. Civalleri                    *
 * R. Orlando, R. Dovesi                                                       *
 * The calculation of the vibration frequencies of crystalline                 *
 * compounds and its implementation in the CRYSTAL code                        *
 * J. Comput. Chem. 25 (2004) 888-897                                          *
 *                                                                             *
 * C.M. Zicovich-Wilson, F. Pascale, C. Roetti, V.R. Saunders,                 *
 * R. Orlando, R. Dovesi                                                       *
 * The calculation of the vibration frequencies of alpha-quartz:               *
 * the effect of hamiltonian and basis set                                     *
 * J. Comput. Chem. 25 (2004) 1873-1881                                        *
 *******************************************************************************



 ATOMS ISOTOPIC MASS (AMU) FOR FREQUENCY CALCULATION 

    1 SI     27.9769    2 SI     27.9769    3 SI     27.9769    4 SI     27.9769
    5 SI     27.9769    6 SI     27.9769    7 SI     27.9769    8 SI     27.9769
    9 SI     27.9769   10 SI     27.9769   11 SI     27.9769   12 SI     27.9769
   13 SI     27.9769   14 SI     27.9769   15 SI     27.9769   16 SI     27.9769
   17 SI     27.9769   18 SI     27.9769   19 SI     27.9769   20 SI     27.9769
   21 SI     27.9769   22 SI     27.9769   23 SI     27.9769   24 SI     27.9769
   25 SI     27.9769   26 SI     27.9769   27 SI     27.9769   28 SI     27.9769
   29 SI     27.9769   30 SI     27.9769   31 SI     27.9769   32 SI     27.9769
   33 SI     27.9769   34 SI     27.9769   35 SI     27.9769   36 SI     27.9769
   37 SI     27.9769   38 SI     27.9769   39 SI     27.9769   40 SI     27.9769
   41 SI     27.9769   42 SI     27.9769   43 SI     27.9769   44 SI     27.9769
   45 SI     27.9769   46 SI     27.9769   47 SI     27.9769   48 SI     27.9769
   49 SI     27.9769   50 SI     27.9769   51 SI     27.9769   52 SI     27.9769
   53 SI     27.9769   54 SI     27.9769   55 SI     27.9769   56 SI     27.9769
   57 SI     27.9769   58 SI     27.9769   59 SI     27.9769   60 SI     27.9769
   61 SI     27.9769   62 SI     27.9769   63 SI     27.9769   64 SI     27.9769
   65 O      15.9949

 INFORMATION CONCERNING THE SCF+GRADIENT CALCULATIONS REQUIRED FOR
 GENERATING FREQUENCIES. IN PRINCIPLE 3N+1 SCF + GRADIENT
 CALCULATIONS  ARE REQUIRED;
 FOR EACH OF THEM THE REMAINING POINT SYMMETRY IS INDICATED.
 POINT SYMMETRY PERMITS TO GENERATE GRADIENTS FOR DISPLACEMENT B 
 STARTING FROM THE GRADIENT GENERATED BY DISPLACEMENT A.

   N   LABEL SYMBOL DISPLACEMENT     SYM. 

   1     EQUILIBRIUM GEOMETRY            1

   2      1   SI           DX        GENERATED BY TRANSLATIONAL INVARIANCE
   3      1   SI           DY        GENERATED BY TRANSLATIONAL INVARIANCE
   4      1   SI           DZ        GENERATED BY TRANSLATIONAL INVARIANCE
   5      2   SI           DX           1
   6      2   SI           DY           1
   7      2   SI           DZ           1
   8      3   SI           DX           1
   9      3   SI           DY           1
  10      3   SI           DZ           1
  11      4   SI           DX           1
  12      4   SI           DY           1
  13      4   SI           DZ           1
  14      5   SI           DX           1
  15      5   SI           DY           1
  16      5   SI           DZ           1
  17      6   SI           DX           1
  18      6   SI           DY           1
  19      6   SI           DZ           1
  20      7   SI           DX           1
  21      7   SI           DY           1
  22      7   SI           DZ           1
  23      8   SI           DX           1
  24      8   SI           DY           1
  25      8   SI           DZ           1
  26      9   SI           DX           1
  27      9   SI           DY           1
  28      9   SI           DZ           1
  29     10   SI           DX           1
  30     10   SI           DY           1
  31     10   SI           DZ           1
  32     11   SI           DX           1
  33     11   SI           DY           1
  34     11   SI           DZ           1
  35     12   SI           DX           1
  36     12   SI           DY           1
  37     12   SI           DZ           1
  38     13   SI           DX           1
  39     13   SI           DY           1
  40     13   SI           DZ           1
  41     14   SI           DX           1
  42     14   SI           DY           1
  43     14   SI           DZ           1
  44     15   SI           DX           1
  45     15   SI           DY           1
  46     15   SI           DZ           1
  47     16   SI           DX           1
  48     16   SI           DY           1
  49     16   SI           DZ           1
  50     17   SI           DX           1
  51     17   SI           DY           1
  52     17   SI           DZ           1
  53     18   SI           DX           1
  54     18   SI           DY           1
  55     18   SI           DZ           1
  56     19   SI           DX           1
  57     19   SI           DY           1
  58     19   SI           DZ           1
  59     20   SI           DX           1
  60     20   SI           DY           1
  61     20   SI           DZ           1
  62     21   SI           DX           1
  63     21   SI           DY           1
  64     21   SI           DZ           1
  65     22   SI           DX           1
  66     22   SI           DY           1
  67     22   SI           DZ           1
  68     23   SI           DX           1
  69     23   SI           DY           1
  70     23   SI           DZ           1
  71     24   SI           DX           1
  72     24   SI           DY           1
  73     24   SI           DZ           1
  74     25   SI           DX           1
  75     25   SI           DY           1
  76     25   SI           DZ           1
  77     26   SI           DX           1
  78     26   SI           DY           1
  79     26   SI           DZ           1
  80     27   SI           DX           1
  81     27   SI           DY           1
  82     27   SI           DZ           1
  83     28   SI           DX           1
  84     28   SI           DY           1
  85     28   SI           DZ           1
  86     29   SI           DX           1
  87     29   SI           DY           1
  88     29   SI           DZ           1
  89     30   SI           DX           1
  90     30   SI           DY           1
  91     30   SI           DZ           1
  92     31   SI           DX           1
  93     31   SI           DY           1
  94     31   SI           DZ           1
  95     32   SI           DX           1
  96     32   SI           DY           1
  97     32   SI           DZ           1
  98     33   SI           DX           1
  99     33   SI           DY           1
 100     33   SI           DZ           1
 101     34   SI           DX           1
 102     34   SI           DY           1
 103     34   SI           DZ           1
 104     35   SI           DX           1
 105     35   SI           DY           1
 106     35   SI           DZ           1
 107     36   SI           DX           1
 108     36   SI           DY           1
 109     36   SI           DZ           1
 110     37   SI           DX           1
 111     37   SI           DY           1
 112     37   SI           DZ           1
 113     38   SI           DX           1
 114     38   SI           DY           1
 115     38   SI           DZ           1
 116     39   SI           DX           1
 117     39   SI           DY           1
 118     39   SI           DZ           1
 119     40   SI           DX           1
 120     40   SI           DY           1
 121     40   SI           DZ           1
 122     41   SI           DX           1
 123     41   SI           DY           1
 124     41   SI           DZ           1
 125     42   SI           DX           1
 126     42   SI           DY           1
 127     42   SI           DZ           1
 128     43   SI           DX           1
 129     43   SI           DY           1
 130     43   SI           DZ           1
 131     44   SI           DX           1
 132     44   SI           DY           1
 133     44   SI           DZ           1
 134     45   SI           DX           1
 135     45   SI           DY           1
 136     45   SI           DZ           1
 137     46   SI           DX           1
 138     46   SI           DY           1
 139     46   SI           DZ           1
 140     47   SI           DX           1
 141     47   SI           DY           1
 142     47   SI           DZ           1
 143     48   SI           DX           1
 144     48   SI           DY           1
 145     48   SI           DZ           1
 146     49   SI           DX           1
 147     49   SI           DY           1
 148     49   SI           DZ           1
 149     50   SI           DX           1
 150     50   SI           DY           1
 151     50   SI           DZ           1
 152     51   SI           DX           1
 153     51   SI           DY           1
 154     51   SI           DZ           1
 155     52   SI           DX           1
 156     52   SI           DY           1
 157     52   SI           DZ           1
 158     53   SI           DX           1
 159     53   SI           DY           1
 160     53   SI           DZ           1
 161     54   SI           DX           1
 162     54   SI           DY           1
 163     54   SI           DZ           1
 164     55   SI           DX           1
 165     55   SI           DY           1
 166     55   SI           DZ           1
 167     56   SI           DX           1
 168     56   SI           DY           1
 169     56   SI           DZ           1
 170     57   SI           DX           1
 171     57   SI           DY           1
 172     57   SI           DZ           1
 173     58   SI           DX           1
 174     58   SI           DY           1
 175     58   SI           DZ           1
 176     59   SI           DX           1
 177     59   SI           DY           1
 178     59   SI           DZ           1
 179     60   SI           DX           1
 180     60   SI           DY           1
 181     60   SI           DZ           1
 182     61   SI           DX           1
 183     61   SI           DY           1
 184     61   SI           DZ           1
 185     62   SI           DX           1
 186     62   SI           DY           1
 187     62   SI           DZ           1
 188     63   SI           DX           1
 189     63   SI           DY           1
 190     63   SI           DZ           1
 191     64   SI           DX           1
 192     64   SI           DY           1
 193     64   SI           DZ           1
 194     65   O            DX           1
 195     65   O            DY           1
 196     65   O            DZ           1
 USE OF RESIDUAL SYMMETRY AFTER DISPLACEMENT

 NUMERICAL GRADIENT COMPUTED WITH A SINGLE DISPLACEMENT (+DX) FOR EACH
 CARTESIAN COORDINATE WITH RESPECT TO THE EQUILIBRIUM CONFIGURATION
 DX=  0.003 ANGSTROM
 NUMBER OF IRREDUCIBLE ATOMS                    65
 NUMBER OF SCF+GRADIENT CALCULATIONS           193

  ATOM  SYMOP  ORDER
    1      1      1
    2      1      1
    3      1      1
    4      1      1
    5      1      1
    6      1      1
    7      1      1
    8      1      1
    9      1      1
   10      1      1
   11      1      1
   12      1      1
   13      1      1
   14      1      1
   15      1      1
   16      1      1
   17      1      1
   18      1      1
   19      1      1
   20      1      1
   21      1      1
   22      1      1
   23      1      1
   24      1      1
   25      1      1
   26      1      1
   27      1      1
   28      1      1
   29      1      1
   30      1      1
   31      1      1
   32      1      1
   33      1      1
   34      1      1
   35      1      1
   36      1      1
   37      1      1
   38      1      1
   39      1      1
   40      1      1
   41      1      1
   42      1      1
   43      1      1
   44      1      1
   45      1      1
   46      1      1
   47      1      1
   48      1      1
   49      1      1
   50      1      1
   51      1      1
   52      1      1
   53      1      1
   54      1      1
   55      1      1
   56      1      1
   57      1      1
   58      1      1
   59      1      1
   60      1      1
   61      1      1
   62      1      1
   63      1      1
   64      1      1
   65      1      1

 ATOM  : IRREDUCIBLE ATOM
 SYMOP : NUMBER OF SYMMETRY OPERATORS THAT DOESN'T MOVE THE IRREDUCIBLE ATOM
 ORDER : MAXIMUM ORDER AMONG THE OPERATORS OF THE IRREDUCIBLE ATOM

 *******************************************************************************


 GCALCO - MAX INDICES DIRECT LATTICE VECTOR    14    14    14
 NO.OF VECTORS CREATED 6999 STARS 3500 RMAX   246.92303 BOHR

 CAPPA:IS1  8;IS2  8;IS3  8; K PTS MONK NET 260; SYMMOPS:K SPACE   2;G SPACE   1

 TTTTTTTTTTTTTTTTTTTTTTTTTTTTTT gordsh1     TELAPSE        6.54 TCPU        6.52

 MATRIX SIZE: P(G) 9353497, F(G)  906754, P(G) IRR 4689454, F(G) IRR  909352
 MAX G-VECTOR INDEX FOR 1- AND 2-ELECTRON INTEGRALS  81

 TTTTTTTTTTTTTTTTTTTTTTTTTTTTTT INPUT       TELAPSE       12.75 TCPU       12.73

 SYMMETRY ALLOWED INTERNAL DEGREE(S) OF FREEDOM: 192
 TTTTTTTTTTTTTTTTTTTTTTTTTTTTTT SYMM        TELAPSE       12.75 TCPU       12.73
 TTTTTTTTTTTTTTTTTTTTTTTTTTTTTT INT_SCREEN  TELAPSE       12.95 TCPU       12.93

         THE FIRST POINT IS RESTORED FROM THE FREQINFO.DAT


 RESTART FROM  AN INCOMPLETE HESSIAN MATRIX


 HHHHHHHHHHHHHHHHHHHHHHHHHHHHHHHHHHHHHHHHHHHHHHHHHHHHHHHHHHHHHHHHHHHHHHHHHHHHHHH
                   FORCE CONSTANT MATRIX - NUMERICAL ESTIMATE
 HHHHHHHHHHHHHHHHHHHHHHHHHHHHHHHHHHHHHHHHHHHHHHHHHHHHHHHHHHHHHHHHHHHHHHHHHHHHHHH
 MAX ABS(DGRAD): MAXIMUM ABSOLUTE GRADIENT DIFFERENCE WITH RESPECT TO
                 THE CENTRAL POINT
 DE:             ENERGY DIFFERENCE WITH RESPECT TO THE CENTRAL POINT
                 (DE IS EXPECTED TO BE POSITIVE FOR ALL DISPLACEMENTS)

   ATOM      MAX ABS(DGRAD)       TOTAL ENERGY (AU)  N.CYC      DE       SYM
    CENTRAL POINT             -1.860274742932E+04     0     0.0000E+00     1
    2 SI DX                   RESTORED FROM A PREV. HESS. MATRIX
    2 SI DY                   RESTORED FROM A PREV. HESS. MATRIX
    2 SI DZ                   RESTORED FROM A PREV. HESS. MATRIX
    3 SI DX                   RESTORED FROM A PREV. HESS. MATRIX
    3 SI DY                   RESTORED FROM A PREV. HESS. MATRIX
    3 SI DZ                   RESTORED FROM A PREV. HESS. MATRIX
    4 SI DX                   RESTORED FROM A PREV. HESS. MATRIX
    4 SI DY                   RESTORED FROM A PREV. HESS. MATRIX
    4 SI DZ                   RESTORED FROM A PREV. HESS. MATRIX
    5 SI DX                   RESTORED FROM A PREV. HESS. MATRIX
    5 SI DY                   RESTORED FROM A PREV. HESS. MATRIX
    5 SI DZ                   RESTORED FROM A PREV. HESS. MATRIX
    6 SI DX                   RESTORED FROM A PREV. HESS. MATRIX
    6 SI DY                   RESTORED FROM A PREV. HESS. MATRIX
[...]
 AT.  43 SI X 0.00023186-.00603901-.00371871-.001068940.002762780.00175319
            Y 0.00777595-.013271810.007383450.007286820.011725300.00433432
            Z -.01259229-.01087761-.000188130.005047750.01291341-.00536332
 AT.  44 SI X 0.001417740.003510150.001279650.004027300.003202880.00055791
            Y 0.00686449-.00448123-.001189350.003848780.006648330.00551493
            Z -.01082751-.00245196-.002277190.003255530.00618291-.00473798
 AT.  45 SI X -.003024530.006130150.00675153-.006464380.01037762-.00118027
            Y -.002329280.00287632-.005447460.002862740.001709030.01033027
            Z -.01059599-.002420210.004092770.000929710.00963939-.00801390
 AT.  46 SI X -.001207340.00050376-.00529485-.005942060.005098960.00280733
            Y -.000048480.00245745-.002074210.005869740.004329660.00658707
            Z -.00360921-.005004250.002375950.000621070.00390210-.00701173
 AT.  47 SI X -.001843050.003201490.001839910.002950540.003008580.00047442
            Y 0.00808426-.004545340.005477040.005585170.005248740.00459587
            Z -.00777714-.004943910.000579510.001146940.00606437-.00576834
 AT.  48 SI X -.000519430.009731140.00470431-.002408660.006936990.00055108
            Y 0.00664099-.00278307-.002148150.003253910.005369460.00607169
            Z -.00740186-.003112480.001024380.000968830.00481409-.00620753
 AT.  49 SI X -.00282900-.012084360.000244950.026153280.005673180.00030184
            Y 0.00035438-.003144770.00805121-.016603540.008722130.00616543
            Z 0.00314477-.00092107-.00358328-.015857050.01059444-.00644646
 AT.  50 SI X -.000818080.002877690.00388157-.001938430.004773620.00166301
            Y 0.00854926-.006464520.004191100.003565050.005330250.00438326
            Z -.00137936-.00201506-.00268184-.001080960.00646438-.00650628
 AT.  51 SI X -.000787510.011005150.00269864-.002873410.006072710.00148929
            Y 0.00753965-.001831640.001569240.005897050.005888260.00519415
            Z 0.00137354-.00189048-.00584491-.000698360.00498793-.00733879
 AT.  52 SI X -.001533130.00310613-.00091960-.004079720.004831720.00140840
            Y 0.003868750.00432546-.003246970.005050470.003869820.00629029
            Z 0.00012167-.001537070.002647230.001344890.00639280-.00738844
 AT.  53 SI X 0.000941720.003885530.00028964-.001761860.005740860.00008960
            Y 0.00203306-.002158190.001954020.000877530.004992710.00628253
            Z -.00946236-.00435189-.003081310.001374480.00680165-.00497264
 AT.  54 SI X 0.000119730.008914670.00354655-.003428190.004418540.00059454
            Y 0.00739333-.004943760.002600630.004197540.004077510.00460168
            Z -.00901641-.00398712-.002407180.001766090.00475879-.00491923
 AT.  55 SI X -.000865090.004974050.00437802-.005165560.004854630.00035952
            Y 0.00540818-.002442070.000541040.006082870.004327270.00528293
            Z -.00938203-.00404926-.001030350.002357560.00761681-.00545608
 AT.  56 SI X 0.000557350.002006990.00152344-.000775590.004791250.00075695
            Y 0.00137720-.001034340.002081520.001362780.004021640.00577832
            Z -.00674009-.00350706-.004065820.000915870.00569028-.00514165
 AT.  57 SI X 0.000509290.010183360.00651204-.003001580.00574186-.00012770
            Y -.00133759-.004000410.00572424-.000231350.002801910.00665491
            Z -.00842495-.00118490-.001120310.003199820.00608893-.00553805
 AT.  58 SI X 0.000893890.00555957-.00023331-.005586070.006077080.00163121
            Y 0.00711094-.005759040.004442620.005022280.006800240.00479856
            Z -.00666093-.00223388-.000527360.003956170.00484917-.00589702
 AT.  59 SI X 0.00052347-.00592725-.00213284-.006663860.003199500.00162353
            Y 0.00531351-.003265180.000813960.009529140.009637810.00567461
            Z -.00856059-.003383070.001200160.006555590.00902644-.00579914
 AT.  60 SI X 0.00061659-.002353430.00197393-.006339260.005672860.00073177
            Y 0.00096953-.00218499-.006893610.000939550.004145190.00746482
            Z -.005350750.001940550.000191230.003658000.00392064-.00596097
 AT.  61 SI X 0.001382730.002490950.00531442-.004828040.003685470.00008365
            Y 0.000148620.00153269-.002574810.003059700.004894480.00720573
            Z -.002623660.002671680.000030270.004764530.00362398-.00656722
 AT.  62 SI X -.000182030.002230260.00110647-.000876840.004657320.00134480
            Y 0.00538436-.005382050.004727130.002565490.004565200.00501772
            Z -.00020853-.00057188-.00446046-.000182300.00508989-.00646731
 AT.  63 SI X 0.00049545-.00133506-.00019089-.005785620.006123310.00143141
            Y 0.004118850.001258800.001664080.005651920.003288990.00527468
            Z -.00067586-.004201840.00293946-.000587430.00362627-.00732137
 AT.  64 SI X -.000262630.008971080.00331629-.000633810.004220850.00040636
            Y 0.00132976-.001201490.001531980.000828580.003853130.00635478
            Z -.00007922-.00078543-.00414074-.000495450.00510580-.00660965
 AT.  65 O  X 0.000220770.001036300.001229830.00325091-.00129663-.00020779
            Y -.000521270.000388800.00239406-.002274170.00015774-.00134045
            Z 0.002158250.00022013-.00219756-.001019880.00099625-.00059377

 FREQ(CM**-1)    530.18    625.77   1140.23

 AT.   1 SI X -.027962680.03564426-.01202943
            Y 0.018633540.03372245-.01162770
            Z 0.012066180.02772934-.00888428
 AT.   2 SI X -.00690929-.000504890.00002408
            Y 0.00269488-.00048914-.00000783
            Z 0.005032650.001569050.00024896
 AT.   3 SI X -.00577932-.00014879-.00003047
            Y 0.00152462-.00021425-.00004394
            Z 0.005578170.00158745-.00014877
 AT.   4 SI X -.009498490.00199603-.00042054
            Y 0.000821290.00143920-.00045299
            Z 0.006060980.00061076-.00058420
 AT.   5 SI X -.00826645-.00052599-.00004122
            Y 0.006787890.001827610.00025518
            Z 0.00015719-.00048890-.00007173
 AT.   6 SI X -.00530216-.000015970.00000892
            Y 0.003010480.000002060.00004707
            Z 0.001884190.000094050.00002900
 AT.   7 SI X -.007410830.000664350.00011239
            Y 0.003694110.000030010.00003265
            Z 0.001888720.000038810.00005608
 AT.   8 SI X -.007581180.00112465-.00015252
            Y 0.00507577-.00057428-.00004225
            Z 0.001454970.00083077-.00000492
 AT.   9 SI X -.00564749-.00013840-.00005363
            Y 0.007323920.00135426-.00016424
            Z 0.00087569-.00016564-.00005062
 AT.  10 SI X -.007298320.000796930.00007344
            Y 0.003085900.000037440.00004438
            Z 0.002908670.00020196-.00002601
 AT.  11 SI X -.012828740.00152256-.00016396
            Y 0.00428156-.000228590.00001291
            Z 0.00403017-.000228300.00000580
 AT.  12 SI X -.005924470.000083490.00003858
            Y 0.003969540.000642970.00011143
            Z 0.001138800.000039120.00001605
 AT.  13 SI X -.009216470.00347347-.00007853
            Y 0.00850550-.00193847-.00060036
            Z 0.000625870.00420215-.00018436
 AT.  14 SI X -.007855730.00091700-.00016591
            Y 0.002894110.000527780.00000345
            Z 0.00392497-.00060191-.00001421
 AT.  15 SI X -.005717570.00012429-.00000381
            Y 0.002183400.000002670.00004462
            Z 0.003069300.000914700.00007994
 AT.  16 SI X -.004626830.000166440.00002904
            Y 0.003272830.00015865-.00005573
            Z 0.002535720.00019015-.00007588
 AT.  17 SI X -.011500250.001845970.00026641
            Y 0.00799992-.000778680.00001215
            Z 0.00699120-.000663150.00000625
 AT.  18 SI X -.006342290.00016089-.00002984
            Y 0.00297378-.00009746-.00002143
            Z 0.003368140.000068820.00004706
 AT.  19 SI X -.00505642-.000076170.00002060
            Y 0.004021270.000292630.00007402
            Z 0.002814170.00034109-.00005905
 AT.  20 SI X -.00793611-.00075764-.00002303
            Y 0.003453150.00061729-.00014430
            Z 0.003539770.00058394-.00001642
 AT.  21 SI X -.006261290.000106710.00000289
            Y 0.004101470.00006853-.00000629
            Z 0.00221234-.00003080-.00005043
 AT.  22 SI X -.004769530.00012643-.00006426
            Y 0.00276057-.000005420.00008876
            Z 0.001997130.00012115-.00002550
 AT.  23 SI X -.007316480.00016733-.00004695
            Y 0.004757620.00009873-.00004262
            Z 0.001969470.000218200.00000513
 AT.  24 SI X -.006539050.000115810.00000097
            Y 0.003784580.000036120.00000837
            Z 0.002308500.000053490.00003814
 AT.  25 SI X -.004830900.00007512-.00003251
            Y 0.00379348-.000011110.00007633
            Z 0.002965480.000914420.00008617
 AT.  26 SI X -.007246160.00020862-.00005620
            Y 0.002407360.000408810.00003734
            Z 0.003707670.00014965-.00001365
 AT.  27 SI X -.01616171-.00222935-.00055120
            Y 0.007782020.00349383-.00006519
            Z 0.007186580.00429641-.00013350
 AT.  28 SI X -.006662980.00055500-.00002733
            Y 0.005949920.00076222-.00016849
            Z 0.00317051-.00058078-.00000953
 AT.  29 SI X -.00805891-.00035685-.00005687
            Y 0.004677540.000351600.00002755
            Z 0.002081020.00092984-.00015130
 AT.  30 SI X -.006578690.00005347-.00000088
            Y 0.00308838-.000033280.00007498
            Z 0.002872990.000079590.00001361
 AT.  31 SI X -.006742750.000493910.00001109
            Y 0.00430928-.00055879-.00002978
            Z 0.004584450.00084593-.00017886
 AT.  32 SI X -.005117100.000229010.00005991
            Y 0.002672430.00119804-.00013267
            Z 0.002472270.000256790.00004056
 AT.  33 SI X 0.01870603-.02875517-.00981042
            Y -.00936703-.02975994-.01013304
            Z -.00789557-.04024383-.01336986
 AT.  34 SI X 0.01125430-.00390540-.00004258
            Y -.00300699-.00380364-.00004636
            Z -.009277540.00228835-.00051702
 AT.  35 SI X 0.005567270.00018764-.00001693
            Y -.002271530.00018279-.00005711
            Z -.00493220-.00155996-.00015620
 AT.  36 SI X 0.007544140.00076666-.00003224
            Y -.001063070.00064436-.00001391
            Z -.00459825-.002078210.00030497
 AT.  37 SI X 0.01363674-.00309915-.00037052
            Y -.013109360.00090319-.00054589
            Z 0.00146857-.00278049-.00022404
 AT.  38 SI X 0.00475491-.00001818-.00004460
            Y -.00323562-.00042418-.00001049
            Z -.00192650-.00020931-.00006934
 AT.  39 SI X 0.00538207-.000006590.00001153
            Y -.00240708-.000071950.00002195
            Z -.00380861-.000700710.00006642
 AT.  40 SI X 0.00687256-.00098359-.00013090
            Y -.00293506-.000548170.00001370
            Z -.003134900.00032392-.00003341
 AT.  41 SI X 0.006093740.000239300.00000853
            Y -.00732911-.00138144-.00017582
            Z -.000913140.000066610.00003468
 AT.  42 SI X 0.00520301-.000090890.00002243
            Y -.00521479-.000756160.00009816
            Z -.00145863-.000186480.00006926
 AT.  43 SI X 0.01300574-.00145198-.00018712
            Y -.005340480.00016011-.00007102
            Z -.004328970.00016402-.00006749
 AT.  44 SI X 0.00965458-.000953140.00010246
            Y -.00265553-.000074920.00000047
            Z -.00284090-.000114070.00004851
 AT.  45 SI X 0.007180390.00049439-.00000755
            Y -.00628999-.001759660.00027893
            Z -.001103500.000454120.00004526
 AT.  46 SI X 0.00683907-.00069754-.00016590
            Y -.004435800.00046254-.00000345
            Z -.00199544-.000550260.00003655
 AT.  47 SI X 0.00858434-.000797480.00008529
            Y -.00350176-.000115720.00004111
            Z -.00212212-.000106450.00004633
 AT.  48 SI X 0.005341630.000202990.00000708
            Y -.00294215-.000127350.00000794
            Z -.00216474-.000109100.00000729
 AT.  49 SI X 0.020988600.00047931-.00058816
            Y -.01416987-.00189367-.00044390
            Z -.01219753-.00247756-.00028761
 AT.  50 SI X 0.00736594-.00012004-.00002965
            Y -.00307192-.00018752-.00001259
            Z -.00424306-.00015781-.00006214
 AT.  51 SI X 0.00509928-.000031620.00002788
            Y -.00296201-.000112460.00009718
            Z -.00360383-.000717870.00010011
 AT.  52 SI X 0.00558619-.000483340.00000199
            Y -.003927200.00178894-.00030063
            Z -.002830420.000430000.00003098
 AT.  53 SI X 0.00756900-.00017084-.00000298
            Y -.00527087-.00023008-.00000667
            Z -.00213411-.000206350.00006259
 AT.  54 SI X 0.00474851-.000095550.00005986
            Y -.00274338-.00008071-.00002271
            Z -.00206555-.00004930-.00001632
 AT.  55 SI X 0.00563899-.00008651-.00000115
            Y -.00336851-.000064890.00001091
            Z -.002285670.000001980.00003002
 AT.  56 SI X 0.00675876-.000020010.00001624
            Y -.00400926-.000081840.00003246
            Z -.00237592-.000087870.00005434
 AT.  57 SI X 0.00516869-.000040330.00002498
            Y -.00504540-.000828960.00010480
            Z -.00234416-.000140540.00004737
 AT.  58 SI X 0.00562730-.000123480.00007918
            Y -.003199870.00005470-.00011173
            Z -.00252556-.000211990.00008369
 AT.  59 SI X 0.01149982-.001728940.00025461
            Y -.005469190.00045705-.00000343
            Z -.004721310.000500610.00000308
 AT.  60 SI X 0.007380930.00056331-.00000972
            Y -.00309617-.00064120-.00018549
            Z -.00329397-.00052807-.00000122
 AT.  61 SI X 0.00603303-.000719010.00004946
            Y -.003877920.000433650.00000150
            Z -.00337067-.00104774-.00019947
 AT.  62 SI X 0.00680108-.000016600.00005918
            Y -.00316617-.000150760.00004961
            Z -.00316045-.000044270.00001605
 AT.  63 SI X 0.007332110.00071599-.00004780
            Y -.00395671-.000626680.00002308
            Z -.00217732-.00115867-.00011036
 AT.  64 SI X 0.005893740.00012358-.00000638
            Y -.00359950-.00016412-.00002629
            Z -.00261115-.000225480.00001311
 AT.  65 O  X -.00028993-.009227290.04209187
            Y -.00044161-.005850350.04205449
            Z -.000875790.012863760.04202135

 *******************************************************************************

 VIBRATIONAL TEMPERATURES (K) [MODE NUMBER;IRREP]

 TO MODES
     6.7 [   4;A  ]   110.0 [   5;A  ]   176.7 [   6;A  ]   187.9 [   7;A  ]
   188.1 [   8;A  ]   189.4 [   9;A  ]   191.5 [  10;A  ]   192.1 [  11;A  ]
   198.0 [  12;A  ]   200.0 [  13;A  ]   202.7 [  14;A  ]   205.9 [  15;A  ]
   206.2 [  16;A  ]   206.7 [  17;A  ]   206.8 [  18;A  ]   207.7 [  19;A  ]
   209.2 [  20;A  ]   209.4 [  21;A  ]   211.3 [  22;A  ]   211.7 [  23;A  ]
   215.4 [  24;A  ]   217.4 [  25;A  ]   222.3 [  26;A  ]   223.1 [  27;A  ]
   223.8 [  28;A  ]   224.2 [  29;A  ]   224.9 [  30;A  ]   226.1 [  31;A  ]
   226.5 [  32;A  ]   226.8 [  33;A  ]   227.2 [  34;A  ]   228.8 [  35;A  ]
   241.9 [  36;A  ]   244.8 [  37;A  ]   254.4 [  38;A  ]   256.6 [  39;A  ]
   257.9 [  40;A  ]   260.1 [  41;A  ]   286.3 [  42;A  ]   293.0 [  43;A  ]
   306.3 [  44;A  ]   309.2 [  45;A  ]   310.0 [  46;A  ]   310.1 [  47;A  ]
   310.6 [  48;A  ]   311.5 [  49;A  ]   312.3 [  50;A  ]   312.8 [  51;A  ]
   313.1 [  52;A  ]   314.1 [  53;A  ]   316.3 [  54;A  ]   316.7 [  55;A  ]
   327.9 [  56;A  ]   328.1 [  57;A  ]   328.6 [  58;A  ]   328.9 [  59;A  ]
   329.5 [  60;A  ]   330.0 [  61;A  ]   330.6 [  62;A  ]   331.1 [  63;A  ]
   331.5 [  64;A  ]   335.1 [  65;A  ]   337.0 [  66;A  ]   339.9 [  67;A  ]
   347.5 [  68;A  ]   349.4 [  69;A  ]   350.4 [  70;A  ]   352.2 [  71;A  ]
   355.4 [  72;A  ]   356.1 [  73;A  ]   409.0 [  74;A  ]   409.5 [  75;A  ]
   411.7 [  76;A  ]   412.7 [  77;A  ]   413.6 [  78;A  ]   414.2 [  79;A  ]
   416.9 [  80;A  ]   418.1 [  81;A  ]   418.5 [  82;A  ]   425.4 [  83;A  ]
   426.5 [  84;A  ]   430.5 [  85;A  ]   494.7 [  86;A  ]   507.1 [  87;A  ]
   508.6 [  88;A  ]   510.2 [  89;A  ]   510.9 [  90;A  ]   511.3 [  91;A  ]
   511.7 [  92;A  ]   514.9 [  93;A  ]   516.1 [  94;A  ]   521.0 [  95;A  ]
   521.8 [  96;A  ]   522.2 [  97;A  ]   566.8 [  98;A  ]   566.9 [  99;A  ]
   569.1 [ 100;A  ]   571.1 [ 101;A  ]   575.5 [ 102;A  ]   579.6 [ 103;A  ]
   580.3 [ 104;A  ]   582.4 [ 105;A  ]   590.3 [ 106;A  ]   591.4 [ 107;A  ]
   594.5 [ 108;A  ]   595.2 [ 109;A  ]   598.5 [ 110;A  ]   601.6 [ 111;A  ]
   604.4 [ 112;A  ]   604.6 [ 113;A  ]   604.9 [ 114;A  ]   605.4 [ 115;A  ]
   606.4 [ 116;A  ]   606.8 [ 117;A  ]   607.3 [ 118;A  ]   608.1 [ 119;A  ]
   608.4 [ 120;A  ]   608.8 [ 121;A  ]   616.6 [ 122;A  ]   617.4 [ 123;A  ]
   640.6 [ 124;A  ]   644.1 [ 125;A  ]   644.4 [ 126;A  ]   650.9 [ 127;A  ]
   651.5 [ 128;A  ]   651.9 [ 129;A  ]   653.1 [ 130;A  ]   657.0 [ 131;A  ]
   657.7 [ 132;A  ]   658.3 [ 133;A  ]   659.6 [ 134;A  ]   660.2 [ 135;A  ]
   660.9 [ 136;A  ]   662.2 [ 137;A  ]   665.6 [ 138;A  ]   669.2 [ 139;A  ]
   669.8 [ 140;A  ]   670.9 [ 141;A  ]   671.1 [ 142;A  ]   671.7 [ 143;A  ]
   672.6 [ 144;A  ]   673.1 [ 145;A  ]   673.5 [ 146;A  ]   674.6 [ 147;A  ]
   675.5 [ 148;A  ]   676.4 [ 149;A  ]   676.9 [ 150;A  ]   677.2 [ 151;A  ]
   677.7 [ 152;A  ]   678.1 [ 153;A  ]   681.2 [ 154;A  ]   683.0 [ 155;A  ]
   684.4 [ 156;A  ]   684.6 [ 157;A  ]   685.2 [ 158;A  ]   687.9 [ 159;A  ]
   688.1 [ 160;A  ]   692.6 [ 161;A  ]   693.2 [ 162;A  ]   694.4 [ 163;A  ]
   696.5 [ 164;A  ]   697.0 [ 165;A  ]   697.0 [ 166;A  ]   697.3 [ 167;A  ]
   697.6 [ 168;A  ]   697.8 [ 169;A  ]   698.1 [ 170;A  ]   698.9 [ 171;A  ]
   699.7 [ 172;A  ]   704.8 [ 173;A  ]   705.0 [ 174;A  ]   706.2 [ 175;A  ]
   706.9 [ 176;A  ]   706.9 [ 177;A  ]   707.8 [ 178;A  ]   709.4 [ 179;A  ]
   709.9 [ 180;A  ]   713.7 [ 181;A  ]   714.4 [ 182;A  ]   721.3 [ 183;A  ]
   721.9 [ 184;A  ]   723.5 [ 185;A  ]   730.3 [ 186;A  ]   731.7 [ 187;A  ]
   733.0 [ 188;A  ]   736.2 [ 189;A  ]   740.8 [ 190;A  ]   752.5 [ 191;A  ]
   760.3 [ 192;A  ]   762.8 [ 193;A  ]   900.3 [ 194;A  ]  1640.5 [ 195;A  ]

 *******************************************************************************

 HARMONIC VIBRATIONAL CONTRIBUTIONS TO THERMODYNAMIC FUNCTIONS AT GIVEN
 TEMPERATURE AND PRESSURE:

 (EL = ELECTRONIC ENERGY
  E0 = ZERO-POINT ENERGY
  ET = THERMAL CONTRIBUTION TO THE VIBRATIONAL ENERGY
  PV = PRESSURE * VOLUME
  TS = TEMPERATURE * ENTROPY)

                          AU/CELL             EV/CELL                 KJ/MOL
 EL            :  -18602.747429316001 -506206.492592482071   -48841506.49265261
 E0            :       0.151646336223       4.126506596161         398.14739964


 *******************************************************************************

 THERMODYNAMIC FUNCTIONS WITH VIBRATIONAL CONTRIBUTIONS

 AT (T =  298.15 K, P =   0.10132500E+00 MPA):

                          AU/CELL             EV/CELL                 KJ/MOL
 ET            :       0.075669755157       2.059078719363         198.67091417
 PV            :       0.000031110833       0.000846568807           0.08168148
 TS            :       0.131383021051       3.575113758066         344.94607316
 ET+PV-TS      :      -0.055682155061      -1.515188469896        -146.19347751
 EL+E0+ET+PV-TS:  -18602.651465134837 -506203.881274355750   -48841254.53873047

 OTHER THERMODYNAMIC FUNCTIONS:

                      mHARTREE/(CELL*K)     mEV/(CELL*K)              J/(MOL*K)
 ENTROPY       :       0.440660811843      11.990990300407        1156.95479845
 HEAT CAPACITY :       0.475660770062      12.943387582487        1248.84717580

 *******************************************************************************
 TTTTTTTTTTTTTTTTTTTTTTTTTTTTTT END         TELAPSE       19.61 TCPU       19.55
 EEEEEEEEEE TERMINATION  DATE 21 11 2017 TIME 12:04:45.1
